Siesta Version: siesta-4.0--530
Architecture  : x86_64-unknown-linux-gnu--unknown
Compiler flags: mpif90 -g -O2
PP flags      : -DMPI -DFC_HAVE_FLUSH -DFC_HAVE_ABORT 
PARALLEL version

* Running on   64 nodes in parallel
>> Start of run:  12-MAR-2018  16:10:19

                           ***********************       
                           *  WELCOME TO SIESTA  *       
                           ***********************       

reinit: Reading from standard input
************************** Dump of input data file ****************************
SystemName  H2O
SystemLabel  H2O
NumberOfSpecies  2
NumberOfAtoms  384
%block ChemicalSpecieslabel
    1 8 O.vdw.1
    2 1 H.vdw.2
%endblock ChemicalSpecieslabel
%block PAO.Basis
O.vdw.1     3     -0.24233
n=2   0   2   E    23.36061     3.39721
     4.50769     2.64066
     1.00000     1.00000
n=2   1   2   E     2.78334     5.14253
     6.14996     2.59356
     1.00000     1.00000
n=3   2   1   E    63.98188     0.16104
     3.54403
     1.00000
H.vdw.2 2      0.46527
n=1   0   2   E    99.93138     2.59932
     4.20357     1.84463
     1.00000     1.00000
n=2   1   1   E    24.56504     2.20231
     3.5281
     1.00000
%endblock PAO.Basis
LatticeConstant  1.0 Ang
%block LatticeVectors
    15.646000000000001     0.000000000000000     0.000000000000000
    0.000000000000000     15.646000000000001     0.000000000000000
    0.000000000000000     0.000000000000000     15.646000000000001
%endblock LatticeVectors
AtomicCoordinatesFormat  Ang
%block AtomicCoordinatesAndAtomicSpecies
     1.859887145     15.993631243     15.587703850 1
     2.275562245     16.304913765     16.355194173 2
     2.438324517     15.231403314     15.375104770 2
    -2.720611862     18.115929750     10.669206457 1
    -3.444059193     17.595950410     10.987861483 2
    -3.092908448     18.994116080     10.711593612 2
    -4.481990414      0.486158988     11.940651249 1
    -5.133466196      0.103198122     11.336127934 2
    -4.876291697      1.158531978     12.536946771 2
     4.740552291     11.691090636     -0.323886143 1
     4.089747243     11.152894148     -0.761922053 2
     5.561154641     11.279935701     -0.624219326 2
    -2.272007702      2.177639874      1.106423051 1
    -1.603361067      2.006834489      1.810788599 2
    -2.867015684      2.862237680      1.444643886 2
    -7.015400482      2.622227952     17.626586877 1
    -7.429243328      2.328148951     16.807000757 2
    -7.614119409      2.204706647     18.285954373 2
     9.500882369     14.780941096      9.983095764 1
     9.404533490     15.580081434      9.394775453 2
     8.671968793     14.685475492     10.460164088 2
     5.183024015      2.723567080      7.083007283 1
     4.946905776      3.551991289      6.632494842 2
     4.721612440      2.705714108      7.950377668 2
     7.926044616     12.208985651     16.699624381 1
     8.779200619     11.773665532     16.660070780 2
     7.877816707     12.753298795     15.851677458 2
     7.156518622     -2.515035594     12.032153073 1
     7.357235781     -2.190688344     12.891356115 2
     7.870307361     -3.121812335     11.849095112 2
    12.126756291      6.058396142      8.571465018 1
    11.911468202      5.207225175      8.227505296 2
    11.341627466      6.523815396      8.209837392 2
     8.793639839      6.509971027      1.286307468 1
     9.204043939      7.232975502      0.694803350 2
     8.050641902      7.001901174      1.653830291 2
    12.801077275     10.922586836     18.008060512 1
    12.983957567     11.824204253     18.062309664 2
    13.580835993     10.534536028     18.422860283 2
    20.424769153      5.927167038     14.299607713 1
    19.774678779      5.585358480     13.651561486 2
    20.029445486      5.687672184     15.107907073 2
    15.442694064     -1.161728292      1.351871458 1
    16.016830316     -0.388217385      1.216608610 2
    14.523057499     -0.985061366      1.098502696 2
    -10.831722552     16.466138437     11.266733148 1
    -9.815092025     16.647869852     11.244867965 2
    -11.144463660     16.626858718     12.188551911 2
    14.900275344      6.273148606      7.494812460 1
    14.066816458      6.437709828      7.957908968 2
    14.983279962      5.290657423      7.310054274 2
     7.697383354     10.175125773      7.233269907 1
     8.086402599     10.905751413      7.768739650 2
     8.288899923      9.492798798      7.388618005 2
     1.534955852     -3.261585610      5.930296792 1
     0.778664471     -3.827518467      5.810996694 2
     2.293597947     -3.856485499      5.764945127 2
     0.884464754     24.053964252      0.340635714 1
    -0.043676278     24.199959426      0.172428535 2
     1.152451347     24.906256246      0.781537722 2
     4.378896250     14.491825681     15.146259349 1
     4.713823254     13.566886072     15.192070816 2
     4.224400672     14.541710734     14.166588837 2
    -2.051986946     13.196943574      4.461804161 1
    -1.843928676     14.143481907      4.471325686 2
    -3.004750505     13.150993517      4.605327043 2
     7.520805617      9.500171322     -11.138988515 1
     7.132917670      8.632818857     -11.427814127 2
     7.338973060      9.609950324     -10.167100464 2
     7.390414665      1.242734461      6.379696557 1
     7.220693799      0.368018629      6.105888144 2
     6.595129135      1.645910915      6.670049182 2
     7.151217184     20.077737512     12.483700527 1
     6.782732252     20.498059046     13.260475089 2
     7.758390808     20.742268291     12.081385122 2
    11.562783574      9.787015409      9.460329075 1
    11.975128908      9.440620995     10.267505322 2
    11.372553355     10.705603385      9.500550667 2
    20.728386570     10.693792757     11.833008868 1
    20.062701670     11.198048078     11.308013643 2
    21.487929595     11.290402041     11.910969441 2
    10.778210103     -8.344271557      5.836378390 1
    10.491124491     -7.656387902      5.175785565 2
    10.692545178     -9.190641374      5.408614794 2
    -5.394016894      1.779569566     13.942316334 1
    -6.311116101      2.110229332     14.192364527 2
    -4.946188173      2.689345260     13.782585276 2
     1.615457719      2.990717621      6.026065743 1
     2.335339139      2.443209955      5.711368613 2
     1.639840613      3.870770532      5.574609566 2
     4.479072218     10.786591384      2.266436634 1
     4.943259054     11.049288080      1.437610833 2
     4.193605970      9.856278770      2.225076532 2
    -0.063822264      6.035540573      2.154161780 1
    -0.367085249      5.715768439      1.236024461 2
     0.329874990      6.957216876      2.056484302 2
     5.638233869      8.248717484     13.165332466 1
     5.199083313      9.065536406     12.939392707 2
     5.175736081      7.833220624     13.927044665 2
    14.708796579      4.439384519     -0.003247332 1
    13.886783780      3.970134211      0.134953683 2
    14.568976335      4.808607106     -0.920450548 2
    11.993024523     12.417610482      6.935489137 1
    12.211164534     11.484985257      7.078840423 2
    11.126210435     12.484326507      6.593416415 2
     3.746190264     14.816184360     24.827928692 1
     4.353869628     15.269203332     25.371148203 2
     2.990787511     15.409554109     24.626280505 2
    14.795058280     11.268221718      5.857872673 1
    14.301528544     10.761464386      6.531559466 2
    14.269089556     12.027007818      5.567986803 2
    -2.383949016     12.667298206     -4.094008778 1
    -1.663698639     12.810295474     -4.745049077 2
    -2.302813978     13.505598066     -3.584702943 2
     1.100735580     14.262529454      4.019166087 1
     1.161626452     13.340427673      4.300554986 2
     0.599170742     14.265754039      3.183048516 2
     5.472458033     14.011961644      4.472012241 1
     4.601800550     13.909908998      4.809233383 2
     5.865342976     13.190382656      4.044841369 2
     9.536312516     12.936890628      5.584269695 1
     8.656501342     13.237012284      5.877555187 2
     9.390845757     12.914811239      4.652758122 2
     3.569030959     16.892300210      5.599975270 1
     4.396013717     17.164390395      5.981925243 2
     3.378232242     16.105017323      6.109290900 2
    10.642004169     11.077675193      0.619748450 1
    11.393676683     10.751892429      1.089735212 2
    10.912828694     11.320864071     -0.320936186 2
     8.860910369      4.478366099     -0.673225742 1
     9.653458777      4.911517726     -0.979736050 2
     8.636901737      5.009288946      0.074003950 2
    15.661476678      3.014535755     11.270962311 1
    14.708801645      2.968501082     11.305356655 2
    15.993353428      2.900672641     10.354256482 2
    10.891180151     12.395271459     10.263384816 1
    11.773667355     12.498138075     10.676347396 2
    10.653433563     13.192820027      9.809000502 2
     3.336362141     11.939689394      9.841383227 1
     2.418238924     11.668062199      9.920210049 2
     3.311477753     12.881282060      9.700226629 2
     5.561886444      6.064106720      6.971407712 1
     5.043425742      6.081071221      6.164895430 2
     5.576713605      6.943762449      7.397670599 2
    -4.450299018      4.378909103     13.558452200 1
    -4.423470649      5.052562384     12.857071515 2
    -3.930256309      4.792608850     14.352056206 2
     7.484989574      1.886935440     11.263745297 1
     7.479954423      2.886812125     11.420664879 2
     8.123811703      1.845678467     10.562581094 2
     5.880849425      0.665686906      0.842060423 1
     6.102677078      0.438291182      1.788264469 2
     5.330988425     -0.056369282      0.517439163 2
    -0.405468752     13.206877299      9.686621517 1
    -1.051903864     13.654098754      9.113719733 2
    -0.221839198     12.279065249      9.537397956 2
    13.978872480     15.911856374      3.888387846 1
    13.433564034     16.622729227      4.286429400 2
    14.526450276     16.533766288      3.340420912 2
    17.219425400     -7.606525696      4.899424789 1
    16.510689361     -7.070799967      4.564790816 2
    17.673270701     -7.036057555      5.442327128 2
    15.849507167     17.580160981      2.751408284 1
    16.791939976     17.459143222      2.641595527 2
    15.635197097     18.355699328      3.244495184 2
    -2.145966265     15.087134725     12.802922035 1
    -2.913599924     15.456890252     12.265887534 2
    -2.027292179     15.803094068     13.460113677 2
    14.358244041      3.380289636      6.098716496 1
    13.930790663      2.947991365      6.889241069 2
    15.297703926      3.069098894      6.139018257 2
    19.172464551      5.415092721     16.940517135 1
    19.670854173      4.583123644     17.078554795 2
    18.307937108      5.113068118     16.628503076 2
     0.174341165     -0.585175270      6.296420918 1
     0.457561285     -0.850426323      5.404092513 2
     0.974105097     -0.903147342      6.769779396 2
     7.631124685      7.070754237      9.903369710 1
     6.778611881      6.744165665      9.584790176 2
     8.121988919      7.365201776      9.103191820 2
     3.139824144     -6.240845833      6.828894219 1
     3.786584517     -6.692717198      7.401475242 2
     3.671681383     -5.786781266      6.181542917 2
     7.030676315     20.371591283      3.359692718 1
     7.631693329     20.640432810      2.655531696 2
     7.545258354     19.867215190      4.017260381 2
    -0.204450794      9.693348972     12.718439166 1
     0.267339833      8.912218054     13.073619709 2
    -0.857555174     10.079771886     13.401139492 2
    11.088927220      3.513229469     -7.842182831 1
    10.912893818      3.764098875     -8.754562061 2
    11.796614713      2.821653955     -7.982067803 2
    10.724444217      0.695102450      2.675820112 1
    10.678766241      0.723503393      3.674676083 2
    10.162208377      1.430561563      2.311186714 2
    14.628422968      0.925356606     14.559379230 1
    15.563033990      0.854696465     14.779138214 2
    14.243834328      1.501255607     15.198266157 2
    12.967932773      8.778515562     11.507825406 1
    13.198328372      7.856358242     11.790052197 2
    13.758073834      9.259371638     11.753336391 2
    15.931927442     12.365670359     -0.257811406 1
    15.885934541     13.251280934      0.123756520 2
    16.480940208     12.467212558     -1.005826316 2
    13.647263737      8.070244925     -0.345375523 1
    12.942701596      7.649717705      0.219730885 2
    13.297570742      8.882807354     -0.785750648 2
    12.752753924     -6.119085130      6.808647297 1
    12.618510689     -6.359135277      7.766417055 2
    13.087214291     -6.970646551      6.346622621 2
     1.451997194      5.275718373     20.505433145 1
     0.808657466      5.131588207     19.810427486 2
     1.445377969      6.205450746     20.698701819 2
     8.346615836      3.538260977      5.228961280 1
     8.382078876      4.221806764      5.907656383 2
     8.229390287      2.695292158      5.684756796 2
    16.946826035     -3.488647640     -2.845968444 1
    16.195019212     -3.004755661     -3.305885244 2
    16.723855731     -4.439023293     -2.868776581 2
     6.341850427     12.414432483      9.075472534 1
     6.655047633     12.358140542      9.960832544 2
     5.375808649     12.250011340      9.122850132 2
    17.547104616      3.717229446     15.495250966 1
    17.816419926      3.096141804     14.779923839 2
    16.560681813      3.755766226     15.520810687 2
     3.524247513      8.117443826      2.835608242 1
     2.972915253      8.052436060      3.604400655 2
     3.428250902      7.215106311      2.436906024 2
    13.724469672     26.449578949     14.247216764 1
    13.993032314     26.960082376     14.991660666 2
    12.991957082     27.001911545     13.910452999 2
     8.686428849     -1.208209764     18.229849339 1
     9.503057324     -0.714433634     18.070644848 2
     8.669286098     -1.997270805     17.639853264 2
    16.314697326      8.831873144      7.921997163 1
    15.829915240      8.409106938      7.154501155 2
    17.058825006      9.331951792      7.637678118 2
     9.316332750      5.683472516     -4.441604685 1
    10.057021909      5.224796755     -4.869526952 2
     8.747754894      5.993409651     -5.201664781 2
    19.957274939      7.698740146     10.815355903 1
    20.556134236      7.735844899     11.622407369 2
    20.230048997      6.846576286     10.406452768 2
    18.964808112     20.317229966     -3.494940292 1
    19.039986432     19.382040787     -3.321498419 2
    17.936092343     20.550431013     -3.472392417 2
    15.357534031      9.730064271      3.583980900 1
    15.999170462     10.105989287      2.989286779 2
    15.354562797     10.280930671      4.392277993 2
    -2.450777482     17.656790170      8.040722581 1
    -2.452878921     17.990062709      8.985271149 2
    -2.197974199     16.693421017      8.073099822 2
    10.400022963      9.022619255      3.790228257 1
     9.551466162      9.478029379      3.880412090 2
    11.081142199      9.637213795      4.094341209 2
    13.564211648     14.736435089      7.993128360 1
    12.963651681     14.081727760      7.646045178 2
    14.359598699     14.650970005      7.359830734 2
     6.506130455      0.415305657     18.909191328 1
     5.795675281     -0.046440148     19.337990282 2
     7.173034671     -0.317959969     18.823538001 2
    16.102449279      5.691996142     11.795004778 1
    15.959128956      4.905834084     11.311390380 2
    16.460238369      6.299510871     11.085291515 2
     9.408210967     -7.481641719      8.425108790 1
     9.662572703     -7.698609532      7.539301505 2
    10.069298829     -6.825453608      8.762771027 2
    12.517269628     -0.846139587      1.198396103 1
    12.209034198     -0.537158282      2.075008767 2
    12.632087019     -0.047328780      0.692423819 2
     5.134004584     -12.704474642      2.100745762 1
     5.280362057     -13.428057283      1.478938722 2
     5.985374925     -12.295918157      2.248237458 2
     1.611060268     10.865243700      1.663939390 1
     1.308981592     11.504734818      0.964931677 2
     2.557445837     11.051824878      1.811579951 2
     1.172135412      3.918330447      8.879942608 1
     1.232399798      4.872451927      9.078196116 2
     1.546368361      3.745598424      7.990290617 2
     2.105838702     17.691090606     12.963712881 1
     1.337580993     17.905255888     12.410283840 2
     1.993199784     16.761379709     13.193277659 2
    13.724728317      7.553067087      4.930748264 1
    12.745889048      7.399457651      5.000931611 2
    14.147162985      6.916677012      5.568177630 2
     9.170852064      1.551169169      8.560460349 1
     9.777293507      2.186490330      8.206279347 2
     8.504062092      1.605892787      7.887031495 2
     9.965070847      8.311563417     15.108836286 1
     9.459387858      8.211732838     14.325283985 2
    10.328493669      9.221399202     15.162000105 2
    -3.083912814     20.963210095     -4.518784902 1
    -3.160982197     21.576649795     -5.204135564 2
    -2.416025990     21.280834097     -3.905999591 2
     5.200048321      8.449098757      8.331341753 1
     4.806931531      8.405780946      9.279175626 2
     5.956375693      9.010057579      8.386193362 2
    10.949931561     11.869497007     13.679860229 1
    10.620841408     12.799711737     13.860303748 2
    10.211417973     11.335896955     13.376948856 2
     1.626729750     -8.829976002      9.790826422 1
     1.197242638     -8.426914337      9.043624406 2
     2.313419222     -8.271875531     10.031485769 2
    -1.478757472      6.092301714     13.423397852 1
    -0.621103363      5.933845612     13.038364890 2
    -1.528353949      6.848055330     14.002599524 2
     8.580344725      8.184762064     12.770685748 1
     8.943239569      7.560888042     12.086591730 2
     7.603873679      8.097308647     12.693437158 2
     7.537637766     -1.457294709     -0.987829465 1
     7.028958800     -0.639189449     -0.893813275 2
     8.435028829     -1.121935004     -0.929524860 2
     3.697123286     18.224856171      9.467956416 1
     2.841030074     17.883004596      9.427970343 2
     4.173224209     17.806133844     10.168154787 2
    11.654152676      4.614291269     16.137513169 1
    12.101213960      5.226958265     16.800359893 2
    10.716365326      4.733115566     16.206597068 2
    18.520021305      1.447838176     18.471420859 1
    19.262644893      2.056157690     18.413468877 2
    18.506055853      0.962641396     19.290509300 2
     3.367531163     14.138578980     12.741464225 1
     4.007542977     14.138297063     12.023468144 2
     3.118921897     13.176148227     12.768983494 2
     1.473034802     16.357438894      8.770185246 1
     0.951382375     16.169291115      9.554278724 2
     0.857142878     16.328479954      7.971125753 2
     6.498985033      7.473977611      3.002750057 1
     5.633505509      7.831304742      2.826450977 2
     6.421470026      6.518739594      3.232714364 2
     1.520273820     -7.877402059     13.398999959 1
     1.409046260     -7.795418766     14.384359642 2
     1.657026817     -8.889042363     13.125505251 2
     4.521955487     -11.130291040      4.975662833 1
     5.265838145     -11.169150169      4.343553614 2
     3.760803871     -10.778635270      4.498603025 2
    15.674022005      0.005736307     10.940782398 1
    15.045092755     -0.070751112     11.680216577 2
    15.623174714     -0.866284393     10.587681838 2
    -3.235977809      6.920221097      1.883656416 1
    -2.440003395      6.945822782      2.430202927 2
    -3.914341603      7.398710697      2.323566205 2
    13.575982457      3.583063307      3.601672310 1
    13.967103996      4.396981757      3.328908270 2
    13.820296993      3.420658979      4.573188537 2
     3.100218770     10.089571649     13.673195386 1
     2.817989698      9.128280406     13.701091695 2
     3.398144884     10.279846625     12.788388785 2
     7.547721911     17.252089220     14.177000324 1
     6.748635156     17.601723482     14.609276546 2
     7.564076317     17.441466584     13.266434739 2
     0.109138886     10.565117773     10.017366665 1
    -0.014651733      9.823510967      9.421437280 2
    -0.016498536     10.189201234     10.908806288 2
     9.265098543     10.847778044     11.908511602 1
     9.133542739      9.908782300     11.918758347 2
     9.705792025     11.188875356     11.104112875 2
    19.757836562     -4.248702988      4.962327689 1
    20.138171187     -4.261348466      4.076068506 2
    20.389494392     -3.767331684      5.489062832 2
     5.326912849      5.175206799      9.795206969 1
     5.296198199      4.610754838      9.026177223 2
     5.024485778      4.615361158     10.516395463 2
    19.236630480     -1.541226412      6.594668154 1
    18.350464401     -2.054654802      6.461990516 2
    19.269861018     -1.457985920      7.564635043 2
    11.195873760     20.259716236     20.442365255 1
    10.406913323     19.881172968     19.998277445 2
    11.974169967     20.107210791     19.844553842 2
    11.054346170     15.909017759      5.295487543 1
    11.410515251     16.432580872      6.032835315 2
    10.558180342     15.250484396      5.696138399 2
     8.078598806      6.046708579     21.961486583 1
     8.170673462      6.749028147     21.267162416 2
     7.141470847      5.987684414     22.194908634 2
    10.581120443     -1.274452422     14.743200683 1
    11.082809462     -0.509731741     14.392365053 2
    10.991066285     -1.443307571     15.582347216 2
     7.190082500     14.025551085     -8.978053207 1
     6.393475933     13.851238272     -9.546667282 2
     7.056536161     13.696126273     -8.123236465 2
     6.717278705     12.037658296      3.554310557 1
     6.954086510     11.992341390      2.634037475 2
     7.119420687     11.203221026      3.975943077 2
%endblock AtomicCoordinatesAndAtomicSpecies
XC.functional  VDW
XC.authors  BH
DM.MixingWeight  0.3
DM.NumberPulay  3
DM.UseSaveDM  True
DM.FormattedFiles  True
MeshCutoff  2721.1386 eV
ElectronicTemperature  0.00500000 eV
WriteMullikenPop  1
************************** End of input data file *****************************

reinit: -----------------------------------------------------------------------
reinit: System Name: H2O
reinit: -----------------------------------------------------------------------
reinit: System Label: H2O                                                         
reinit: -----------------------------------------------------------------------

initatom: Reading input for the pseudopotentials and atomic orbitals ----------
 Species number:            1  Label: O.vdw.1 Atomic number:           8
 Species number:            2  Label: H.vdw.2 Atomic number:           1
Ground state valence configuration:   2s02  2p04
Reading pseudopotential information in formatted form from O.vdw.1.psf

Valence configuration for pseudopotential generation:
2s( 2.00) rc: 1.14
2p( 4.00) rc: 1.14
3d( 0.00) rc: 1.14
4f( 0.00) rc: 1.14
Ground state valence configuration:   1s01
Reading pseudopotential information in formatted form from H.vdw.2.psf

Valence configuration for pseudopotential generation:
1s( 1.00) rc: 1.25
2p( 0.00) rc: 1.25
3d( 0.00) rc: 1.25
4f( 0.00) rc: 1.25
For O.vdw.1, standard SIESTA heuristics set lmxkb to 3
 (one more than the basis l, including polarization orbitals).
Use PS.lmax or PS.KBprojectors blocks to override.
For H.vdw.2, standard SIESTA heuristics set lmxkb to 2
 (one more than the basis l, including polarization orbitals).
Use PS.lmax or PS.KBprojectors blocks to override.

<basis_specs>
===============================================================================
O.vdw.1              Z=   8    Mass=  16.000        Charge=-0.24233    
Lmxo=2 Lmxkb= 3    BasisType=split      Semic=F
L=0  Nsemic=0  Cnfigmx=2
          n=1  nzeta=2  polorb=0
            splnorm:   0.15000    
               vcte:    23.361    
               rinn:    3.3972    
               qcoe:    0.0000    
               qyuk:    0.0000    
               qwid:   0.10000E-01
                rcs:    4.5077      2.6407    
            lambdas:    1.0000      1.0000    
L=1  Nsemic=0  Cnfigmx=2
          n=1  nzeta=2  polorb=0
            splnorm:   0.15000    
               vcte:    2.7833    
               rinn:    5.1425    
               qcoe:    0.0000    
               qyuk:    0.0000    
               qwid:   0.10000E-01
                rcs:    6.1500      2.5936    
            lambdas:    1.0000      1.0000    
L=2  Nsemic=0  Cnfigmx=3
          n=1  nzeta=1  polorb=0
            splnorm:   0.15000    
               vcte:    63.982    
               rinn:   0.16104    
               qcoe:    0.0000    
               qyuk:    0.0000    
               qwid:   0.10000E-01
                rcs:    3.5440    
            lambdas:    1.0000    
-------------------------------------------------------------------------------
L=0  Nkbl=1  erefs: 0.17977+309
L=1  Nkbl=1  erefs: 0.17977+309
L=2  Nkbl=1  erefs: 0.17977+309
L=3  Nkbl=1  erefs: 0.17977+309
===============================================================================
</basis_specs>

atom: Called for O.vdw.1               (Z =   8)

read_vps: Pseudopotential generation method:
read_vps: ATM3      Troullier-Martins                       
Total valence charge:    6.00000

read_vps: Pseudopotential includes a core correction:
read_vps: Pseudo-core for xc-correction

xc_check: Exchange-correlation functional:
xc_check: VDW Berland-Hyldgaard
xc_check: WARNING: Pseudopotential generated with GGA PBE functional
V l=0 = -2*Zval/r beyond r=  1.1278
V l=1 = -2*Zval/r beyond r=  1.1278
V l=2 = -2*Zval/r beyond r=  1.1278
V l=3 = -2*Zval/r beyond r=  1.1278
All V_l potentials equal beyond r=  1.1278
This should be close to max(r_c) in ps generation
All pots = -2*Zval/r beyond r=  1.1278

VLOCAL1: 99.0% of the norm of Vloc inside     34.126 Ry
VLOCAL1: 99.9% of the norm of Vloc inside     77.774 Ry
atom: Maximum radius for 4*pi*r*r*local-pseudopot. charge    1.37759
atom: Maximum radius for r*vlocal+2*Zval:    1.18566
GHOST: No ghost state for L =  0
GHOST: No ghost state for L =  1
GHOST: No ghost state for L =  2
GHOST: No ghost state for L =  3

KBgen: Kleinman-Bylander projectors: 
   l= 0   rc=  1.262145   el= -1.750162   Ekb=  9.253102   kbcos=  0.327868
   l= 1   rc=  1.262145   el= -0.658346   Ekb= -7.898073   kbcos= -0.392576
   l= 2   rc=  1.343567   el=  0.002386   Ekb= -1.922781   kbcos= -0.003578
   l= 3   rc=  1.394919   el=  0.003508   Ekb= -0.738254   kbcos= -0.000365

KBgen: Total number of  Kleinman-Bylander projectors:   16
atom: -------------------------------------------------------------------------

atom: SANKEY-TYPE ORBITALS:
atom: Selected multiple-zeta basis: split     

atom: basis set generated (by rescaling the valence charge)
atom: for an anion of charge  -0.2423

SPLIT: Orbitals with angular momentum L= 0

SPLIT: Basis orbitals for state 2s

   izeta = 1
                 lambda =    1.000000
                     rc =    4.574469
                 energy =   -1.747125
                kinetic =    1.486382
    potential(screened) =   -3.233508
       potential(ionic) =  -11.045689

   izeta = 2
                 rmatch =    2.639108
              splitnorm =    0.146289
                 energy =   -1.544315
                kinetic =    2.317735
    potential(screened) =   -3.862050
       potential(ionic) =  -12.314290

SPLIT: Orbitals with angular momentum L= 1

SPLIT: Basis orbitals for state 2p

   izeta = 1
                 lambda =    1.000000
                     rc =    6.174996
                 energy =   -0.651333
                kinetic =    4.269728
    potential(screened) =   -4.921061
       potential(ionic) =  -12.264742

   izeta = 2
                 rmatch =    2.639108
              splitnorm =    0.214693
                 energy =   -0.406979
                kinetic =    7.103166
    potential(screened) =   -7.510145
       potential(ionic) =  -16.083971

SPLIT: Orbitals with angular momentum L= 2

SPLIT: Basis orbitals for state 3d

   izeta = 1
                 lambda =    1.000000
                     rc =    3.562532
                 energy =    3.653736
                kinetic =    6.475620
    potential(screened) =   -2.821883
       potential(ionic) =   -9.990305
atom: Total number of Sankey-type orbitals: 13

atm_pop: Valence configuration (for local Pseudopot. screening):
 2s( 2.00)                                                            
 2p( 4.00)                                                            
 3d( 0.00)                                                            
Vna: chval, zval:    6.00000   6.00000

Vna:  Cut-off radius for the neutral-atom potential:   6.174996
comcore: Pseudo-core radius Rcore=  1.377587

atom: _________________________________________________________________________

<basis_specs>
===============================================================================
H.vdw.2              Z=   1    Mass=  1.0100        Charge= 0.46527    
Lmxo=1 Lmxkb= 2    BasisType=split      Semic=F
L=0  Nsemic=0  Cnfigmx=1
          n=1  nzeta=2  polorb=0
            splnorm:   0.15000    
               vcte:    99.931    
               rinn:    2.5993    
               qcoe:    0.0000    
               qyuk:    0.0000    
               qwid:   0.10000E-01
                rcs:    4.2036      1.8446    
            lambdas:    1.0000      1.0000    
L=1  Nsemic=0  Cnfigmx=2
          n=1  nzeta=1  polorb=0
            splnorm:   0.15000    
               vcte:    24.565    
               rinn:    2.2023    
               qcoe:    0.0000    
               qyuk:    0.0000    
               qwid:   0.10000E-01
                rcs:    3.5281    
            lambdas:    1.0000    
-------------------------------------------------------------------------------
L=0  Nkbl=1  erefs: 0.17977+309
L=1  Nkbl=1  erefs: 0.17977+309
L=2  Nkbl=1  erefs: 0.17977+309
===============================================================================
</basis_specs>

atom: Called for H.vdw.2               (Z =   1)

read_vps: Pseudopotential generation method:
read_vps: ATM3      Troullier-Martins                       
Total valence charge:    1.00000

xc_check: Exchange-correlation functional:
xc_check: VDW Berland-Hyldgaard
xc_check: WARNING: Pseudopotential generated with GGA PBE functional
V l=0 = -2*Zval/r beyond r=  1.2343
V l=1 = -2*Zval/r beyond r=  1.2189
V l=2 = -2*Zval/r beyond r=  1.2189
All V_l potentials equal beyond r=  1.2343
This should be close to max(r_c) in ps generation
All pots = -2*Zval/r beyond r=  1.2343

VLOCAL1: 99.0% of the norm of Vloc inside     28.493 Ry
VLOCAL1: 99.9% of the norm of Vloc inside     64.935 Ry
atom: Maximum radius for 4*pi*r*r*local-pseudopot. charge    1.45251
atom: Maximum radius for r*vlocal+2*Zval:    1.21892
GHOST: No ghost state for L =  0
GHOST: No ghost state for L =  1
GHOST: No ghost state for L =  2

KBgen: Kleinman-Bylander projectors: 
   l= 0   rc=  1.364359   el= -0.474566   Ekb= -2.022290   kbcos= -0.345658
   l= 1   rc=  1.434438   el=  0.001422   Ekb= -0.443448   kbcos= -0.022709
   l= 2   rc=  1.470814   el=  0.002365   Ekb= -0.140530   kbcos= -0.002880

KBgen: Total number of  Kleinman-Bylander projectors:    9
atom: -------------------------------------------------------------------------

atom: SANKEY-TYPE ORBITALS:
atom: Selected multiple-zeta basis: split     

atom: basis set generated (by rescaling the valence charge)
atom: for a cation of charge   0.4653

SPLIT: Orbitals with angular momentum L= 0

SPLIT: Basis orbitals for state 1s

   izeta = 1
                 lambda =    1.000000
                     rc =    4.260636
                 energy =   -0.875216
                kinetic =    1.371864
    potential(screened) =   -2.247080
       potential(ionic) =   -2.300626

   izeta = 2
                 rmatch =    1.865767
              splitnorm =    0.571489
                 energy =    0.470272
                kinetic =    4.356176
    potential(screened) =   -3.885904
       potential(ionic) =   -3.840372

SPLIT: Orbitals with angular momentum L= 1

SPLIT: Basis orbitals for state 2p

   izeta = 1
                 lambda =    1.000000
                     rc =    3.576223
                 energy =    0.839521
                kinetic =    2.014191
    potential(screened) =   -1.174670
       potential(ionic) =   -1.303990
atom: Total number of Sankey-type orbitals:  5

atm_pop: Valence configuration (for local Pseudopot. screening):
 1s( 1.00)                                                            
 2p( 0.00)                                                            
Vna: chval, zval:    1.00000   1.00000

Vna:  Cut-off radius for the neutral-atom potential:   4.260636

atom: _________________________________________________________________________

prinput: Basis input ----------------------------------------------------------

PAO.BasisType split     

%block ChemicalSpeciesLabel
    1    8 O.vdw.1                 # Species index, atomic number, species label
    2    1 H.vdw.2                 # Species index, atomic number, species label
%endblock ChemicalSpeciesLabel

%block PAO.Basis                 # Define Basis set
O.vdw.1               3  -0.242            # Label, l-shells, ionic net charge
 n=2   0   2                         # n, l, Nzeta 
   4.574      2.639   
   1.000      1.000   
 n=2   1   2                         # n, l, Nzeta 
   6.175      2.639   
   1.000      1.000   
 n=3   2   1                         # n, l, Nzeta 
   3.563   
   1.000   
H.vdw.2               2   0.465            # Label, l-shells, ionic net charge
 n=1   0   2                         # n, l, Nzeta 
   4.261      1.866   
   1.000      1.000   
 n=2   1   1                         # n, l, Nzeta 
   3.576   
   1.000   
%endblock PAO.Basis

prinput: ----------------------------------------------------------------------

coor:   Atomic-coordinates input format  =     Cartesian coordinates
coor:                                          (in Angstroms)

siesta: Atomic coordinates (Bohr) and species
siesta:      3.51468  30.22359  29.45650  1        1
siesta:      4.30019  30.81183  30.90685  2        2
siesta:      4.60777  28.78319  29.05475  2        3
siesta:     -5.14121  34.23416  20.16189  1        4
siesta:     -6.50833  33.25154  20.76406  2        5
siesta:     -5.84475  35.89369  20.24199  2        6
siesta:     -8.46974   0.91871  22.56457  1        7
siesta:     -9.70085   0.19502  21.42219  2        8
siesta:     -9.21486   2.18931  23.69141  2        9
siesta:      8.95835  22.09297  -0.61206  1       10
siesta:      7.72851  21.07592  -1.43982  2       11
siesta:     10.50906  21.31600  -1.17960  2       12
siesta:     -4.29347   4.11514   2.09084  1       13
siesta:     -3.02991   3.79237   3.42190  2       14
siesta:     -5.41788   5.40885   2.72998  2       15
siesta:    -13.25719   4.95529  33.30943  1       16
siesta:    -14.03924   4.39957  31.76064  2       17
siesta:    -14.38861   4.16629  34.55546  2       18
siesta:     17.95407  27.93194  18.86532  1       19
siesta:     17.77200  29.44210  17.75356  2       20
siesta:     16.38765  27.75154  19.76685  2       21
siesta:      9.79450   5.14680  13.38495  1       22
siesta:      9.34830   6.71229  12.53360  2       23
siesta:      8.92256   5.11306  15.02404  2       24
siesta:     14.97806  23.07165  31.55773  1       25
siesta:     16.59029  22.24901  31.48298  2       26
siesta:     14.88692  24.10025  29.95534  2       27
siesta:     13.52387  -4.75273  22.73748  1       28
siesta:     13.90317  -4.13980  24.36114  2       29
siesta:     14.87273  -5.89937  22.39155  2       30
siesta:     22.91626  11.44871  16.19773  1       31
siesta:     22.50942   9.84023  15.54774  2       32
siesta:     21.43258  12.32823  15.51435  2       33
siesta:     16.61758  12.30207   2.43077  1       34
siesta:     17.39313  13.66835   1.31299  2       35
siesta:     15.21351  13.23168   3.12529  2       36
siesta:     24.19054  20.64071  34.03032  1       37
siesta:     24.53613  22.34452  34.13283  2       38
siesta:     25.66407  19.90740  34.81417  2       39
siesta:     38.59724  11.20073  27.02235  1       40
siesta:     37.36874  10.55480  25.79772  2       41
siesta:     37.85018  10.74815  28.54982  2       42
siesta:     29.18247  -2.19535   2.55467  1       43
siesta:     30.26743  -0.73362   2.29906  2       44
siesta:     27.44461  -1.86150   2.07587  2       45
siesta:    -20.46900  31.11650  21.29105  1       46
siesta:    -18.54784  31.45993  21.24973  2       47
siesta:    -21.05999  31.42022  23.03303  2       48
siesta:     28.15745  11.85454  14.16315  1       49
siesta:     26.58244  12.16551  15.03827  2       50
siesta:     28.31431   9.99790  13.81401  2       51
siesta:     14.54595  19.22821  13.66890  1       52
siesta:     15.28109  20.60889  14.68080  2       53
siesta:     15.66376  17.93880  13.96247  2       54
siesta:      2.90065  -6.16351  11.20664  1       55
siesta:      1.47146  -7.23296  10.98120  2       56
siesta:      4.33427  -7.28770  10.89417  2       57
siesta:      1.67140  45.45542   0.64371  1       58
siesta:     -0.08254  45.73131   0.32584  2       59
siesta:      2.17782  47.06602   1.47689  2       60
siesta:      8.27492  27.38559  28.62229  1       61
siesta:      8.90784  25.63771  28.70886  2       62
siesta:      7.98296  27.47986  26.77098  2       63
siesta:     -3.87769  24.93862   8.43159  1       64
siesta:     -3.48452  26.72732   8.44958  2       65
siesta:     -5.67816  24.85179   8.70281  2       66
siesta:     14.21227  17.95273 -21.04965  1       67
siesta:     13.47927  16.31367 -21.59545  2       68
siesta:     13.86865  18.16018 -19.21304  2       69
siesta:     13.96587   2.34843  12.05588  1       70
siesta:     13.64514   0.69545  11.53846  2       71
siesta:     12.46299   3.11032  12.60457  2       72
siesta:     13.51385  37.94144  23.59078  1       73
siesta:     12.81751  38.73573  25.05868  2       74
siesta:     14.66124  39.19722  22.83052  2       75
siesta:     21.85050  18.49479  17.87744  1       76
siesta:     22.62972  17.84020  19.40278  2       77
siesta:     21.49102  20.23067  17.95345  2       78
siesta:     39.17099  20.20835  22.36115  1       79
siesta:     37.91303  21.16125  21.36906  2       80
siesta:     40.60632  21.33578  22.50848  2       81
siesta:     20.36787 -15.76839  11.02916  1       82
siesta:     19.82536 -14.46848   9.78082  2       83
siesta:     20.20599 -17.36780  10.22080  2       84
siesta:    -10.19322   3.36290  26.34717  1       85
siesta:    -11.92629   3.98776  26.81969  2       86
siesta:     -9.34694   5.08213  26.04532  2       87
siesta:      3.05277   5.65164  11.38762  1       88
siesta:      4.41315   4.61700  10.79293  2       89
siesta:      3.09885   7.31470  10.53449  2       90
siesta:      8.46422  20.38371   4.28295  1       91
siesta:      9.34141  20.88014   2.71669  2       92
siesta:      7.92477  18.62567   4.20479  2       93
siesta:     -0.12061  11.40552   4.07078  1       94
siesta:     -0.69369  10.80124   2.33575  2       95
siesta:      0.62337  13.14724   3.88619  2       96
siesta:     10.65472  15.58782  24.87888  1       97
siesta:      9.82485  17.13139  24.45192  2       98
siesta:      9.78073  14.80265  26.31831  2       99
siesta:     27.79561   8.38922  -0.00614  1      100
siesta:     26.24223   7.50247   0.25503  2      101
siesta:     27.53139   9.08695  -1.73940  2      102
siesta:     22.66354  23.46589  13.10618  1      103
siesta:     23.07577  21.70349  13.37708  2      104
siesta:     21.02550  23.59197  12.45976  2      105
siesta:      7.07928  27.99854  46.91800  1      106
siesta:      8.22762  28.85462  47.94454  2      107
siesta:      5.65177  29.11985  46.53694  2      108
siesta:     27.95862  21.29386  11.06978  1      109
siesta:     27.02598  20.33623  12.34286  2      110
siesta:     26.96468  22.72776  10.52197  2      111
siesta:     -4.50501  23.93773  -7.73656  1      112
siesta:     -3.14394  24.20796  -8.96685  2      113
siesta:     -4.35169  25.52189  -6.77411  2      114
siesta:      2.08009  26.95229   7.59513  1      115
siesta:      2.19516  25.20976   8.12687  2      116
siesta:      1.13227  26.95838   6.01509  2      117
siesta:     10.34145  26.47878   8.45088  1      118
siesta:      8.69615  26.28593   9.08814  2      119
siesta:     11.08390  24.92622   7.64365  2      120
siesta:     18.02103  24.44719  10.55274  1      121
siesta:     16.35842  25.01434  11.10697  2      122
siesta:     17.74613  24.40547   8.79244  2      123
siesta:      6.74449  31.92183  10.58242  1      124
siesta:      8.30727  32.43601  11.30420  2      125
siesta:      6.38394  30.43408  11.54489  2      126
siesta:     20.11048  20.93378   1.17116  1      127
siesta:     21.53094  20.31814   2.05930  2      128
siesta:     20.62227  21.39334  -0.60648  2      129
siesta:     16.74470   8.46289  -1.27221  1      130
siesta:     18.24240   9.28143  -1.85143  2      131
siesta:     16.32139   9.46619   0.13985  2      132
siesta:     29.59591   5.69665  21.29904  1      133
siesta:     27.79562   5.60966  21.36404  2      134
siesta:     30.22307   5.48148  19.56672  2      135
siesta:     20.58136  23.42368  19.39499  1      136
siesta:     22.24902  23.61807  20.17538  2      137
siesta:     20.13208  24.93083  18.53633  2      138
siesta:      6.30481  22.56275  18.59753  1      139
siesta:      4.56981  22.04945  18.74649  2      140
siesta:      6.25779  24.34210  18.33078  2      141
siesta:     10.51045  11.45951  13.17406  1      142
siesta:      9.53070  11.49156  11.64997  2      143
siesta:     10.53847  13.12181  13.97958  2      144
siesta:     -8.40985   8.27494  25.62177  1      145
siesta:     -8.35915   9.54796  24.29635  2      146
siesta:     -7.42711   9.05672  27.12147  2      147
siesta:     14.14459   3.56579  21.28540  1      148
siesta:     14.13507   5.45529  21.58194  2      149
siesta:     15.35179   3.48783  19.96039  2      150
siesta:     11.11320   1.25797   1.59126  1      151
siesta:     11.53239   0.82825   3.37933  2      152
siesta:     10.07411  -0.10652   0.97782  2      153
siesta:     -0.76623  24.95739  18.30507  1      154
siesta:     -1.98781  25.80252  17.22244  2      155
siesta:     -0.41922  23.20408  18.02308  2      156
siesta:     26.41625  30.06906   7.34799  1      157
siesta:     25.38577  31.41242   8.10018  2      158
siesta:     27.45102  31.24430   6.31248  2      159
siesta:     32.54001 -14.37426   9.25857  1      160
siesta:     31.20069 -13.36188   8.62621  2      161
siesta:     33.39765 -13.29623  10.28451  2      162
siesta:     29.95124  33.22170   5.19941  1      163
siesta:     31.73218  32.99301   4.99189  2      164
siesta:     29.54625  34.68726   6.13121  2      165
siesta:     -4.05529  28.51056  24.19403  1      166
siesta:     -5.50591  29.20930  23.17918  2      167
siesta:     -3.83103  29.86353  25.43594  2      168
siesta:     27.13316   6.38782  11.52491  1      169
siesta:     26.32539   5.57090  13.01878  2      170
siesta:     28.90848   5.79976  11.60107  2      171
siesta:     36.23072  10.23305  32.01295  1      172
siesta:     37.17254   8.66085  32.27380  2      173
siesta:     34.59700   9.66230  31.42333  2      174
siesta:      0.32946  -1.10582  11.89852  1      175
siesta:      0.86467  -1.60707  10.21226  2      176
siesta:      1.84079  -1.70670  12.79303  2      177
siesta:     14.42074  13.36179  18.71466  1      178
siesta:     12.80973  12.74463  18.11264  2      179
siesta:     15.34834  13.91822  17.20255  2      180
siesta:      5.93341 -11.79349  12.90474  1      181
siesta:      7.15561 -12.64741  13.98677  2      182
siesta:      6.93847 -10.93544  11.68143  2      183
siesta:     13.28606  38.49674   6.34890  1      184
siesta:     14.42182  39.00478   5.01823  2      185
siesta:     14.25848  37.54361   7.59152  2      186
siesta:     -0.38636  18.31778  24.03438  1      187
siesta:      0.50520  16.84166  24.70557  2      188
siesta:     -1.62055  19.04802  25.32449  2      189
siesta:     20.95504   6.63904 -14.81958  1      190
siesta:     20.62239   7.11312 -16.54373  2      191
siesta:     22.29238   5.33216 -15.08393  2      192
siesta:     20.26627   1.31355   5.05657  1      193
siesta:     20.17995   1.36722   6.94413  2      194
siesta:     19.20380   2.70337   4.36751  2      195
siesta:     27.64372   1.74867  27.51325  1      196
siesta:     29.40988   1.61514  27.92853  2      197
siesta:     26.91696   2.83696  28.72057  2      198
siesta:     24.50585  16.58900  21.74665  1      199
siesta:     24.94124  14.84637  22.27998  2      200
siesta:     25.99900  17.49768  22.21060  2      201
siesta:     30.10699  23.36774  -0.48719  1      202
siesta:     30.02008  25.04130   0.23387  2      203
siesta:     31.14448  23.55963  -1.90074  2      204
siesta:     25.78960  15.25056  -0.65267  1      205
siesta:     24.45817  14.45588   0.41523  2      206
siesta:     25.12878  16.78608  -1.48485  2      207
siesta:     24.09922 -11.56340  12.86648  1      208
siesta:     23.84554 -12.01703  14.67641  2      209
siesta:     24.73126 -13.17262  11.99338  2      210
siesta:      2.74388   9.96967  38.74967  1      211
siesta:      1.52814   9.69730  37.43630  2      212
siesta:      2.73137  11.72661  39.11489  2      213
siesta:     15.77282   6.68635   9.88131  1      214
siesta:     15.83984   7.97806  11.16386  2      215
siesta:     15.55130   5.09337  10.74264  2      216
siesta:     32.02487  -6.59259  -5.37810  1      217
siesta:     30.60416  -5.67817  -6.24722  2      218
siesta:     31.60352  -8.38854  -5.42120  2      219
siesta:     11.98437  23.45989  17.15016  1      220
siesta:     12.57622  23.35351  18.82325  2      221
siesta:     10.15881  23.14918  17.23970  2      222
siesta:     33.15924   7.02455  29.28179  1      223
siesta:     33.66817   5.85086  27.93002  2      224
siesta:     31.29517   7.09737  29.33009  2      225
siesta:      6.65987  15.33975   5.35853  1      226
siesta:      5.61800  15.21690   6.81133  2      227
siesta:      6.47846  13.63458   4.60509  2      228
siesta:     25.93550  49.98248  26.92335  1      229
siesta:     26.44301  50.94719  28.33014  2      230
siesta:     24.55125  51.02624  26.28696  2      231
siesta:     16.41498  -2.28319  34.44944  1      232
siesta:     17.95818  -1.35008  34.14858  2      233
siesta:     16.38258  -3.77430  33.33450  2      234
siesta:     30.83032  16.68983  14.97041  1      235
siesta:     29.91422  15.89092  13.52005  2      236
siesta:     32.23652  17.63484  14.43313  2      237
siesta:     17.60532  10.74021  -8.39342  1      238
siesta:     19.00502   9.87344  -9.20208  2      239
siesta:     16.53087  11.32591  -9.82973  2      240
siesta:     37.71380  14.54852  20.43807  1      241
siesta:     38.84548  14.61863  21.96318  2      242
siesta:     38.22927  12.93816  19.66535  2      243
siesta:     35.83831  38.39402  -6.60448  1      244
siesta:     35.98037  36.62676  -6.27672  2      245
siesta:     33.89432  38.83470  -6.56187  2      246
siesta:     29.02154  18.38716   6.77275  1      247
siesta:     30.23406  19.09756   5.64894  2      248
siesta:     29.01593  19.42815   8.30021  2      249
siesta:     -4.63130  33.36651  15.19477  1      250
siesta:     -4.63527  33.99631  16.97971  2      251
siesta:     -4.15357  31.54601  15.25595  2      252
siesta:     19.65320  17.05029   7.16250  1      253
siesta:     18.04966  17.91089   7.33292  2      254
siesta:     20.94033  18.21170   7.73719  2      255
siesta:     25.63266  27.84784  15.10483  1      256
siesta:     24.49776  26.61062  14.44894  2      257
siesta:     27.13572  27.68633  13.90807  2      258
siesta:     12.29481   0.78481  35.73321  1      259
siesta:     10.95224  -0.08776  36.54352  2      260
siesta:     13.55508  -0.60086  35.57135  2      261
siesta:     30.42923  10.75632  22.28934  1      262
siesta:     30.15839   9.27069  21.37544  2      263
siesta:     31.10535  11.90436  20.94817  2      264
siesta:     17.77895 -14.13826  15.92115  1      265
siesta:     18.25962 -14.54827  14.24722  2      266
siesta:     19.02822 -12.89824  16.55924  2      267
siesta:     23.65422  -1.59897   2.26464  1      268
siesta:     23.07174  -1.01508   3.92120  2      269
siesta:     23.87119  -0.08944   1.30849  2      270
siesta:      9.70187 -24.00799   3.96984  1      271
siesta:      9.97844 -25.37536   2.79479  2      272
siesta:     11.31072 -23.23593   4.24855  2      273
siesta:      3.04446  20.53234   3.14439  1      274
siesta:      2.47362  21.74081   1.82346  2      275
siesta:      4.83287  20.88493   3.42339  2      276
siesta:      2.21502   7.40457  16.78067  1      277
siesta:      2.32890   9.20760  17.15531  2      278
siesta:      2.92221   7.07816  15.09947  2      279
siesta:      3.97946  33.43133  24.49788  1      280
siesta:      2.52766  33.83604  23.45205  2      281
siesta:      3.76660  31.67443  24.93169  2      282
siesta:     25.93599  14.27323   9.31777  1      283
siesta:     24.08625  13.98295   9.45039  2      284
siesta:     26.73427  13.07063  10.52233  2      285
siesta:     17.33041   2.93129  16.17693  1      286
siesta:     18.47641   4.13187  15.50763  2      287
siesta:     16.07035   3.03470  14.90434  2      288
siesta:     18.83126  15.70658  28.55157  1      289
siesta:     17.87566  15.51793  27.07087  2      290
siesta:     19.51803  17.42593  28.65204  2      291
siesta:     -5.82775  39.61474  -8.53927  1      292
siesta:     -5.97339  40.77398  -9.83439  2      293
siesta:     -4.56563  40.21496  -7.38127  2      294
siesta:      9.82667  15.96649  15.74396  1      295
siesta:      9.08379  15.88463  17.53511  2      296
siesta:     11.25592  17.02655  15.84761  2      297
siesta:     20.69238  22.43011  25.85120  1      298
siesta:     20.07049  24.18796  26.19219  2      299
siesta:     19.29679  21.42175  25.27878  2      300
siesta:      3.07407 -16.68624  18.50199  1      301
siesta:      2.26246 -15.92457  17.08998  2      302
siesta:      4.37173 -15.63159  18.95677  2      303
siesta:     -2.79445  11.51279  25.36656  1      304
siesta:     -1.17372  11.21335  24.63895  2      305
siesta:     -2.88817  12.94095  26.46109  2      306
siesta:     16.21451  15.46696  24.13311  1      307
siesta:     16.90028  14.28801  22.84036  2      308
siesta:     14.36924  15.30170  23.98713  2      309
siesta:     14.24408  -2.75389  -1.86673  1      310
siesta:     13.28281  -1.20789  -1.68906  2      311
siesta:     15.93990  -2.12015  -1.75655  2      312
siesta:      6.98655  34.44000  17.89185  1      313
siesta:      5.36877  33.79399  17.81629  2      314
siesta:      7.88625  33.64873  19.21504  2      315
siesta:     22.02317   8.71975  30.49549  1      316
siesta:     22.86799   9.87752  31.74809  2      317
siesta:     20.25100   8.94430  30.62604  2      318
siesta:     34.99778   2.73602  34.90594  1      319
siesta:     36.40114   3.88558  34.79643  2      320
siesta:     34.97139   1.81913  36.45379  2      321
siesta:      6.36371  26.71805  24.07789  1      322
siesta:      7.57316  26.71752  22.72107  2      323
siesta:      5.89391  24.89932  24.12989  2      324
siesta:      2.78363  30.91109  16.57325  1      325
siesta:      1.79785  30.55554  18.05498  2      326
siesta:      1.61977  30.85637  15.06325  2      327
siesta:     12.28131  14.12378   5.67438  1      328
siesta:     10.64579  14.79903   5.34122  2      329
siesta:     12.13482  12.31864   6.10895  2      330
siesta:      2.87290 -14.88614  25.32045  1      331
siesta:      2.66271 -14.73121  27.18251  2      332
siesta:      3.13133 -16.79786  24.80362  2      333
siesta:      8.54526 -21.03321   9.40264  1      334
siesta:      9.95100 -21.10664   8.20813  2      335
siesta:      7.10689 -20.36868   8.50113  2      336
siesta:     29.61962   0.01084  20.67509  1      337
siesta:     28.43112  -0.13370  22.07242  2      338
siesta:     29.52353  -1.63704  20.00783  2      339
siesta:     -6.11511  13.07733   3.55960  1      340
siesta:     -4.61094  13.12571   4.59242  2      341
siesta:     -7.39704  13.98154   4.39091  2      342
siesta:     25.65490   6.77101   6.80618  1      343
siesta:     26.39401   8.30909   6.29073  2      344
siesta:     26.11659   6.46411   8.64208  2      345
siesta:      5.85857  19.06653  25.83860  1      346
siesta:      5.32523  17.24996  25.89132  2      347
siesta:      6.42157  19.42610  24.16656  2      348
siesta:     14.26313  32.60174  26.79066  1      349
siesta:     12.75308  33.26245  27.60754  2      350
siesta:     14.29404  32.95961  25.06994  2      351
siesta:      0.20624  19.96519  18.93009  1      352
siesta:     -0.02769  18.56375  17.80394  2      353
siesta:     -0.03118  19.25481  20.61466  2      354
siesta:     17.50851  20.49934  22.50383  1      355
siesta:     17.25990  18.72489  22.52320  2      356
siesta:     18.34130  21.14392  20.98374  2      357
siesta:     37.33691  -8.02889   9.37744  1      358
siesta:     38.05564  -8.05278   7.70266  2      359
siesta:     38.53058  -7.11923  10.37283  2      360
siesta:     10.06641   9.77973  18.51027  1      361
siesta:     10.00837   8.71307  17.05701  2      362
siesta:      9.49491   8.72177  19.87312  2      363
siesta:     36.35198  -2.91250  12.46212  1      364
siesta:     34.67737  -3.88274  12.21140  2      365
siesta:     36.41477  -2.75520  14.29509  2      366
siesta:     21.15714  38.28533  38.63049  1      367
siesta:     19.66622  37.56999  37.79128  2      368
siesta:     22.62791  37.99714  37.50079  2      369
siesta:     20.88970  30.06370  10.00703  1      370
siesta:     21.56276  31.05309  11.40041  2      371
siesta:     19.95208  28.81925  10.76415  2      372
siesta:     15.26635  11.42663  41.50121  1      373
siesta:     15.44034  12.75382  40.18913  2      374
siesta:     13.49543  11.31509  41.94232  2      375
siesta:     19.99543  -2.40837  27.86062  1      376
siesta:     20.94348  -0.96325  27.19764  2      377
siesta:     20.77011  -2.72746  29.44638  2      378
siesta:     13.58729  26.50446 -16.96607  1      379
siesta:     12.08192  26.17506 -18.04059  2      380
siesta:     13.33493  25.88194 -15.35070  2      381
siesta:     12.69382  22.74789   6.71668  1      382
siesta:     13.14132  22.66225   4.97761  2      383
siesta:     13.45376  21.17103   7.51345  2      384

siesta: System type = bulk      

initatomlists: Number of atoms, orbitals, and projectors:    384  2944  4352

siesta: ******************** Simulation parameters ****************************
siesta:
siesta: The following are some of the parameters of the simulation.
siesta: A complete list of the parameters used, including default values,
siesta: can be found in file out.fdf
siesta:
redata: Non-Collinear-spin run           =     F
redata: SpinPolarized (Up/Down) run      =     F
redata: Number of spin components        =     1
redata: Long output                      =     F
redata: Number of Atomic Species         =        2
redata: Charge density info will appear in .RHO file
redata: Write Mulliken Pop.              =     Atomic and Orbital charges
redata: Mesh Cutoff                      =   199.9982  Ry
redata: Net charge of the system         =     0.0000 |e|
redata: Min. number of SCF Iter          =        0
redata: Max. number of SCF Iter          =       50
redata: Mix DM or H after convergence    =     F
redata: Recompute H after scf cycle      =     F
redata: Performing Pulay mixing using    =     3 iterations
redata: Mix DM in first SCF step ?       =     F
redata: Write Pulay info on disk?        =     F
redata: Discard 1st Pulay DM after  kick =     F
redata: New DM Mixing Weight             =     0.3000
redata: New DM Occupancy tolerance       = 0.000000000001
redata: No kicks to SCF
redata: DM Mixing Weight for Kicks       =     0.5000
redata: DM Tolerance for SCF             =     0.000100
redata: Require (free) Energy convergence in SCF =     F
redata: DM (free)Energy tolerance for SCF =     0.000010 eV
redata: Require Harris convergence for SCF =     F
redata: DM Harris energy tolerance for SCF =     0.000010 eV
redata: Using Saved Data (generic)   =     F
redata: Use continuation files for DM    =     T
redata: Neglect nonoverlap interactions  =     F
redata: Method of Calculation            =     Diagonalization
redata: Divide and Conquer               =     T
redata: Electronic Temperature           =     0.0004  Ry
redata: Fix the spin of the system       =     F
redata: Dynamics option                  =     Single-point calculation
redata: ***********************************************************************
Total number of electrons:  1024.000000
Total ionic charge:  1024.000000

* ProcessorY, Blocksize:    8  24


* Orbital distribution balance (max,min):    48    24

 Kpoints in:            1 . Kpoints trimmed:            1

siesta: k-grid: Number of k-points =     1
siesta: k-grid: Cutoff (effective) =     7.823 Ang
siesta: k-grid: Supercell and displacements
siesta: k-grid:    1   0   0      0.000
siesta: k-grid:    0   1   0      0.000
siesta: k-grid:    0   0   1      0.000

                     ====================================
                        Single-point calculation
                     ====================================

outcell: Unit cell vectors (Ang):
       15.646000    0.000000    0.000000
        0.000000   15.646000    0.000000
        0.000000    0.000000   15.646000

outcell: Cell vector modules (Ang)   :   15.646000   15.646000   15.646000
outcell: Cell angles (23,13,12) (deg):     90.0000     90.0000     90.0000
outcell: Cell volume (Ang**3)        :   3830.0988
New_DM. Step:     1
Initializing Density Matrix...
New grid distribution:   1
           1       1:   72    1:    9    1:    9
           2       1:   72    1:    9   10:   18
           3       1:   72    1:    9   19:   27
           4       1:   72    1:    9   28:   36
           5       1:   72    1:    9   37:   45
           6       1:   72    1:    9   46:   54
           7       1:   72    1:    9   55:   63
           8       1:   72    1:    9   64:   72
           9       1:   72   10:   18    1:    9
          10       1:   72   10:   18   10:   18
          11       1:   72   10:   18   19:   27
          12       1:   72   10:   18   28:   36
          13       1:   72   10:   18   37:   45
          14       1:   72   10:   18   46:   54
          15       1:   72   10:   18   55:   63
          16       1:   72   10:   18   64:   72
          17       1:   72   19:   27    1:    9
          18       1:   72   19:   27   10:   18
          19       1:   72   19:   27   19:   27
          20       1:   72   19:   27   28:   36
          21       1:   72   19:   27   37:   45
          22       1:   72   19:   27   46:   54
          23       1:   72   19:   27   55:   63
          24       1:   72   19:   27   64:   72
          25       1:   72   28:   36    1:    9
          26       1:   72   28:   36   10:   18
          27       1:   72   28:   36   19:   27
          28       1:   72   28:   36   28:   36
          29       1:   72   28:   36   37:   45
          30       1:   72   28:   36   46:   54
          31       1:   72   28:   36   55:   63
          32       1:   72   28:   36   64:   72
          33       1:   72   37:   45    1:    9
          34       1:   72   37:   45   10:   18
          35       1:   72   37:   45   19:   27
          36       1:   72   37:   45   28:   36
          37       1:   72   37:   45   37:   45
          38       1:   72   37:   45   46:   54
          39       1:   72   37:   45   55:   63
          40       1:   72   37:   45   64:   72
          41       1:   72   46:   54    1:    9
          42       1:   72   46:   54   10:   18
          43       1:   72   46:   54   19:   27
          44       1:   72   46:   54   28:   36
          45       1:   72   46:   54   37:   45
          46       1:   72   46:   54   46:   54
          47       1:   72   46:   54   55:   63
          48       1:   72   46:   54   64:   72
          49       1:   72   55:   63    1:    9
          50       1:   72   55:   63   10:   18
          51       1:   72   55:   63   19:   27
          52       1:   72   55:   63   28:   36
          53       1:   72   55:   63   37:   45
          54       1:   72   55:   63   46:   54
          55       1:   72   55:   63   55:   63
          56       1:   72   55:   63   64:   72
          57       1:   72   64:   72    1:    9
          58       1:   72   64:   72   10:   18
          59       1:   72   64:   72   19:   27
          60       1:   72   64:   72   28:   36
          61       1:   72   64:   72   37:   45
          62       1:   72   64:   72   46:   54
          63       1:   72   64:   72   55:   63
          64       1:   72   64:   72   64:   72

InitMesh: MESH =   144 x   144 x   144 =     2985984
InitMesh: (bp) =    72 x    72 x    72 =      373248
InitMesh: Mesh cutoff (required, used) =   199.998   234.110 Ry
ExtMesh (bp) on 0 =   136 x    73 x    73 =      724744
New grid distribution:   2
           1      55:   72   36:   54   36:   54
           2       1:   20    1:   15    1:   18
           3      37:   56    1:   18   18:   35
           4      59:   72   36:   53   55:   72
           5      16:   36    1:   18   36:   52
           6       1:   15    1:   18   36:   52
           7      16:   36    1:   19   53:   72
           8       1:   15    1:   19   53:   72
           9       1:   18   16:   35    1:   18
          10      37:   58    1:   17    1:   17
          11      19:   36    1:   17   19:   35
          12      21:   36   18:   35   19:   35
          13      37:   56    1:   17   36:   55
          14      57:   72    1:   17   36:   55
          15      37:   52    1:   18   56:   72
          16      53:   72    1:   18   56:   72
          17      19:   36   16:   35    1:   18
          18      57:   72   18:   35    1:   17
          19       1:   20   18:   35   19:   35
          20      37:   54   19:   35   18:   35
          21      37:   55   18:   35   36:   55
          22      20:   36   19:   35   36:   52
          23      17:   36   20:   35   53:   72
          24      37:   55   19:   35   56:   72
          25      56:   72   36:   56    1:   19
          26      17:   34   57:   72   21:   35
          27      55:   72   19:   35   18:   35
          28      56:   72   18:   35   36:   55
          29      38:   54   36:   54   36:   54
          30       1:   19   19:   35   36:   52
          31      56:   72   19:   35   56:   72
          32      16:   37   36:   53   56:   72
          33      35:   55   36:   56    1:   19
          34       1:   15   36:   53    1:   20
          35      56:   72   36:   53   20:   35
          36      15:   34   36:   56   21:   35
          37       1:   19   36:   53   36:   55
          38      20:   37   36:   53   36:   55
          39       1:   18    1:   17   19:   35
          40       1:   15   36:   53   56:   72
          41      16:   34   36:   53    1:   20
          42      37:   56   18:   35    1:   17
          43      21:   34   54:   72    1:   20
          44       1:   14   36:   56   21:   35
          45      57:   72    1:   18   18:   35
          46      21:   36    1:   15    1:   18
          47      38:   58   36:   53   55:   72
          48      19:   37   54:   72   56:   72
          49       1:   20   54:   72    1:   20
          50      35:   55   36:   53   20:   35
          51      35:   53   57:   72    1:   19
          52      59:   72   55:   72   36:   54
          53      18:   37   54:   72   36:   55
          54       1:   17   54:   72   36:   55
          55      38:   54   54:   72   55:   72
          56      59:   72    1:   17    1:   17
          57       1:   18   54:   72   56:   72
          58      54:   72   57:   72    1:   19
          59      35:   57   54:   72   20:   35
          60      58:   72   54:   72   20:   35
          61      38:   58   55:   72   36:   54
          62       1:   16   20:   35   53:   72
          63      55:   72   54:   72   55:   72
          64       1:   16   57:   72   21:   35
New grid distribution:   3
           1      37:   54   19:   36   55:   72
           2      37:   54   55:   72   55:   72
           3      37:   54   19:   36    1:   18
           4      37:   54   55:   72    1:   18
           5      37:   54    1:   18   37:   54
           6      55:   72   55:   72   55:   72
           7      55:   72   19:   36    1:   18
           8      55:   72   55:   72    1:   18
           9      55:   72   19:   36   55:   72
          10      37:   54   37:   54   55:   72
          11      37:   54    1:   18    1:   18
          12      37:   54   37:   54    1:   18
          13      55:   72    1:   18   37:   54
          14      55:   72   37:   54   55:   72
          15      55:   72    1:   18    1:   18
          16      55:   72   37:   54    1:   18
          17      37:   54    1:   18   55:   72
          18       1:   18   55:   72   37:   54
          19      37:   54   19:   36   19:   36
          20       1:   18   55:   72    1:   18
          21      37:   54   19:   36   37:   54
          22      19:   36   55:   72   37:   54
          23      37:   54    1:   18   19:   36
          24      19:   36   55:   72    1:   18
          25      55:   72    1:   18   55:   72
          26       1:   18   37:   54   37:   54
          27      55:   72   19:   36   19:   36
          28       1:   18   37:   54    1:   18
          29      55:   72   19:   36   37:   54
          30      19:   36   37:   54   37:   54
          31      55:   72    1:   18   19:   36
          32      19:   36   37:   54    1:   18
          33       1:   18   19:   36   37:   54
          34       1:   18   55:   72   55:   72
          35       1:   18   19:   36    1:   18
          36      37:   54   37:   54   19:   36
          37      19:   36   19:   36   37:   54
          38      37:   54   37:   54   37:   54
          39      19:   36   19:   36    1:   18
          40       1:   18   55:   72   19:   36
          41       1:   18    1:   18   37:   54
          42      19:   36   55:   72   55:   72
          43       1:   18    1:   18    1:   18
          44      55:   72   37:   54   19:   36
          45      19:   36    1:   18   37:   54
          46      55:   72   37:   54   37:   54
          47      19:   36    1:   18    1:   18
          48      19:   36   55:   72   19:   36
          49       1:   18   19:   36   55:   72
          50       1:   18   37:   54   55:   72
          51       1:   18   19:   36   19:   36
          52      37:   54   55:   72   19:   36
          53      19:   36   19:   36   55:   72
          54      37:   54   55:   72   37:   54
          55      19:   36   19:   36   19:   36
          56       1:   18   37:   54   19:   36
          57       1:   18    1:   18   55:   72
          58      19:   36   37:   54   55:   72
          59       1:   18    1:   18   19:   36
          60      55:   72   55:   72   19:   36
          61      19:   36    1:   18   55:   72
          62      55:   72   55:   72   37:   54
          63      19:   36    1:   18   19:   36
          64      19:   36   37:   54   19:   36
Setting up quadratic distribution...
ExtMesh (bp) on 0 =    82 x    83 x    83 =      564898
PhiOnMesh: Number of (b)points on node 0 =                 6498
PhiOnMesh: nlist on node 0 =               218833

stepf: Fermi-Dirac step function

siesta: Program's energy decomposition (eV):
siesta: Ebs     =    -19577.423976
siesta: Eions   =    104429.373288
siesta: Ena     =     25182.116318
siesta: Ekin    =     39699.832111
siesta: Enl     =     -5658.984676
siesta: DEna    =         0.000021
siesta: DUscf   =         0.000000
siesta: DUext   =         0.000000
siesta: Exc     =    -14193.687730
siesta: eta*DQ  =         0.000000
siesta: Emadel  =         0.000000
siesta: Emeta   =         0.000000
siesta: Emolmec =         0.000000
siesta: Ekinion =         0.000000
siesta: Eharris =    -60749.202893
siesta: Etot    =    -59400.097244
siesta: FreeEng =    -59400.097244

   scf: iscf   Eharris(eV)      E_KS(eV)   FreeEng(eV)    dDmax  Ef(eV)
   scf:    1   -60749.2029   -59400.0972   -59400.0972  0.99520 -3.5446
timer: Routine,Calls,Time,% =    IterSCF     1      10.012  33.00
   scf:    2   -61452.1359   -59324.7295   -59324.7295  2.32918  1.8248
   scf:    3   -60160.2731   -59686.8339   -59686.8339  0.45363 -0.0858
   scf:    4   -60155.4404   -59900.4455   -59900.4455  0.27616  0.3739
   scf:    5   -60154.8693   -60174.5206   -60174.5206  0.03895  0.2340
   scf:    6   -60154.7434   -60159.1182   -60159.1182  0.02012  0.2023
   scf:    7   -60154.7333   -60157.7909   -60157.7909  0.01018  0.2114
   scf:    8   -60154.7326   -60157.4552   -60157.4552  0.00368  0.2278
   scf:    9   -60154.7315   -60156.8067   -60156.8067  0.00160  0.2272
   scf:   10   -60154.7312   -60155.8097   -60155.8097  0.00048  0.2241
   scf:   11   -60154.7312   -60155.3659   -60155.3659  0.00031  0.2236
   scf:   12   -60154.7312   -60154.9699   -60154.9699  0.00023  0.2236
   scf:   13   -60154.7312   -60154.7289   -60154.7289  0.00006  0.2240

SCF Convergence by dMax criterion
max |DM_out - DM_in|:     0.00005842
SCF cycle converged after   13 iterations

Using DM_out to compute the final energy and forces

siesta: E_KS(eV) =           -60154.7312

siesta: E_KS - E_eggbox =    -60154.7312

siesta: Atomic forces (eV/Ang):
----------------------------------------
   Tot   -0.034695   -0.029857   -0.070286
----------------------------------------
   Max    3.346809
   Res    0.944610    sqrt( Sum f_i^2 / 3N )
----------------------------------------
   Max    3.346809    constrained

Stress-tensor-Voigt (kbar):      -23.11      -20.80      -25.63       -4.98       -1.83       -0.38
(Free)E + p*V (eV/cell)   -60099.3162
Target enthalpy (eV/cell)   -60154.7312

mulliken: Atomic and Orbital Populations:

Species: O.vdw.1             
Atom  Qatom  Qorb
               2s      2s      2py     2pz     2px     2py     2pz     2px     
               3dxy    3dyz    3dz2    3dxz    3dx2-y2 
   1  6.645   1.571   0.173   1.352   1.378   1.526   0.234   0.221   0.170
              0.008   0.002   0.005   0.006   0.001
   4  6.572   1.521   0.206   1.016   1.695   1.409   0.374   0.113   0.216
              0.010   0.001   0.004   0.003   0.004
   7  6.669   1.575   0.160   1.488   1.421   1.471   0.169   0.197   0.170
              0.005   0.003   0.000   0.007   0.002
  10  6.592   1.532   0.202   1.546   1.630   0.995   0.161   0.142   0.363
              0.009   0.004   0.002   0.005   0.001
  13  6.622   1.559   0.178   1.544   1.449   1.281   0.143   0.188   0.260
              0.004   0.003   0.003   0.008   0.002
  16  6.582   1.534   0.205   1.680   0.988   1.495   0.121   0.358   0.177
              0.005   0.005   0.002   0.009   0.002
  19  6.622   1.543   0.193   1.451   1.447   1.366   0.189   0.197   0.216
              0.002   0.005   0.001   0.005   0.008
  22  6.640   1.546   0.181   1.411   1.230   1.693   0.189   0.267   0.105
              0.002   0.003   0.004   0.005   0.004
  25  6.623   1.538   0.194   1.511   1.413   1.362   0.173   0.188   0.224
              0.004   0.005   0.006   0.001   0.004
  28  6.658   1.565   0.171   1.506   1.295   1.481   0.175   0.260   0.183
              0.007   0.002   0.008   0.003   0.001
  31  6.625   1.571   0.173   1.106   1.690   1.437   0.327   0.110   0.188
              0.005   0.005   0.002   0.004   0.006
  34  6.692   1.614   0.147   1.451   1.566   1.380   0.172   0.139   0.203
              0.008   0.006   0.001   0.002   0.003
  37  6.640   1.572   0.172   1.053   1.744   1.419   0.352   0.094   0.212
              0.005   0.001   0.003   0.005   0.009
  40  6.659   1.594   0.157   1.759   1.014   1.513   0.072   0.360   0.168
              0.004   0.003   0.002   0.010   0.003
  43  6.598   1.513   0.206   1.402   1.779   1.050   0.208   0.075   0.346
              0.007   0.002   0.003   0.002   0.005
  46  6.657   1.610   0.155   1.851   1.313   1.174   0.039   0.214   0.282
              0.001   0.002   0.009   0.002   0.005
  49  6.670   1.593   0.160   1.258   1.698   1.391   0.237   0.098   0.215
              0.001   0.001   0.002   0.005   0.011
  52  6.614   1.557   0.182   1.054   1.630   1.491   0.345   0.136   0.195
              0.010   0.005   0.003   0.004   0.001
  55  6.619   1.574   0.168   1.416   1.830   0.982   0.197   0.054   0.377
              0.013   0.002   0.004   0.001   0.001
  58  6.618   1.561   0.180   1.409   1.682   1.151   0.207   0.102   0.307
              0.003   0.004   0.003   0.001   0.010
  61  6.640   1.582   0.164   1.294   1.251   1.789   0.235   0.255   0.050
              0.003   0.001   0.011   0.001   0.004
  64  6.610   1.551   0.186   1.232   1.830   1.159   0.280   0.064   0.287
              0.001   0.001   0.004   0.001   0.013
  67  6.666   1.609   0.150   1.389   1.190   1.772   0.196   0.275   0.068
              0.004   0.001   0.009   0.002   0.003
  70  6.623   1.523   0.191   1.145   1.713   1.365   0.323   0.109   0.236
              0.005   0.002   0.003   0.003   0.007
  73  6.654   1.560   0.175   1.497   1.303   1.524   0.154   0.249   0.173
              0.006   0.007   0.003   0.002   0.001
  76  6.685   1.569   0.160   1.171   1.454   1.745   0.306   0.187   0.076
              0.001   0.002   0.006   0.003   0.005
  79  6.646   1.599   0.156   1.489   1.667   1.118   0.171   0.121   0.304
              0.011   0.004   0.003   0.002   0.001
  82  6.666   1.573   0.167   1.027   1.524   1.821   0.346   0.149   0.039
              0.001   0.011   0.002   0.003   0.003
  85  6.631   1.600   0.159   1.350   1.761   1.219   0.206   0.067   0.249
              0.007   0.002   0.004   0.001   0.006
  88  6.691   1.604   0.139   1.168   1.711   1.533   0.294   0.075   0.150
              0.004   0.006   0.001   0.003   0.004
  91  6.643   1.570   0.172   1.230   1.436   1.652   0.267   0.184   0.112
              0.002   0.002   0.006   0.004   0.005
  94  6.705   1.628   0.140   1.296   1.392   1.760   0.220   0.188   0.063
              0.003   0.002   0.008   0.002   0.003
  97  6.616   1.542   0.194   1.234   1.408   1.601   0.282   0.201   0.135
              0.007   0.002   0.004   0.005   0.002
 100  6.638   1.593   0.162   1.597   1.288   1.387   0.140   0.241   0.208
              0.005   0.002   0.008   0.002   0.003
 103  6.673   1.569   0.165   1.276   1.778   1.276   0.245   0.078   0.266
              0.001   0.001   0.003   0.003   0.012
 106  6.651   1.567   0.164   1.502   1.589   1.200   0.170   0.147   0.294
              0.009   0.004   0.002   0.003   0.000
 109  6.637   1.557   0.172   1.303   1.499   1.506   0.250   0.168   0.165
              0.007   0.003   0.002   0.005   0.001
 112  6.613   1.566   0.176   1.423   1.378   1.470   0.198   0.207   0.175
              0.002   0.005   0.001   0.006   0.007
 115  6.570   1.502   0.216   1.243   1.263   1.682   0.271   0.257   0.117
              0.001   0.002   0.005   0.005   0.007
 118  6.642   1.540   0.181   1.485   1.665   1.222   0.162   0.098   0.272
              0.003   0.003   0.002   0.003   0.007
 121  6.667   1.580   0.164   1.834   1.125   1.355   0.054   0.307   0.227
              0.003   0.001   0.010   0.003   0.004
 124  6.598   1.545   0.186   1.313   1.597   1.292   0.247   0.143   0.254
              0.001   0.007   0.002   0.005   0.006
 127  6.674   1.560   0.171   1.762   1.163   1.469   0.069   0.289   0.172
              0.003   0.001   0.005   0.007   0.003
 130  6.603   1.568   0.176   1.546   1.317   1.334   0.162   0.250   0.227
              0.007   0.008   0.004   0.002   0.003
 133  6.616   1.513   0.203   1.815   1.311   1.150   0.064   0.239   0.303
              0.001   0.001   0.009   0.001   0.006
 136  6.673   1.574   0.161   1.391   1.611   1.361   0.208   0.133   0.217
              0.002   0.005   0.001   0.003   0.008
 139  6.645   1.571   0.173   1.134   1.831   1.271   0.325   0.066   0.253
              0.002   0.001   0.004   0.001   0.013
 142  6.610   1.519   0.205   1.391   1.294   1.585   0.207   0.247   0.143
              0.001   0.004   0.004   0.005   0.006
 145  6.628   1.572   0.179   1.489   1.138   1.687   0.151   0.286   0.107
              0.003   0.010   0.001   0.003   0.003
 148  6.660   1.604   0.157   1.249   1.492   1.551   0.254   0.177   0.155
              0.001   0.001   0.004   0.007   0.008
 151  6.709   1.605   0.138   1.524   1.302   1.674   0.132   0.228   0.088
              0.006   0.004   0.007   0.001   0.001
 154  6.639   1.528   0.188   1.141   1.608   1.563   0.319   0.126   0.150
              0.002   0.003   0.002   0.005   0.006
 157  6.614   1.602   0.161   1.302   1.518   1.414   0.228   0.163   0.204
              0.009   0.007   0.001   0.002   0.002
 160  6.612   1.524   0.196   1.420   1.491   1.276   0.213   0.198   0.272
              0.009   0.007   0.002   0.002   0.002
 163  6.639   1.563   0.169   1.386   1.658   1.198   0.216   0.131   0.300
              0.001   0.005   0.002   0.001   0.009
 166  6.624   1.567   0.170   1.461   1.367   1.486   0.178   0.209   0.167
              0.004   0.008   0.000   0.003   0.004
 169  6.640   1.579   0.161   1.731   1.438   1.162   0.086   0.179   0.286
              0.004   0.004   0.005   0.002   0.003
 172  6.650   1.541   0.189   1.385   1.799   1.149   0.208   0.060   0.299
              0.008   0.002   0.003   0.002   0.005
 175  6.618   1.579   0.169   1.762   1.138   1.357   0.083   0.301   0.208
              0.004   0.003   0.004   0.007   0.004
 178  6.598   1.544   0.191   1.696   1.410   1.137   0.102   0.198   0.298
              0.002   0.003   0.005   0.008   0.002
 181  6.668   1.592   0.153   1.575   1.327   1.424   0.149   0.235   0.195
              0.006   0.003   0.000   0.009   0.002
 184  6.657   1.566   0.166   1.640   1.226   1.475   0.116   0.274   0.175
              0.004   0.002   0.000   0.010   0.002
 187  6.682   1.603   0.143   1.407   1.540   1.496   0.189   0.132   0.154
              0.003   0.004   0.002   0.005   0.002
 190  6.591   1.523   0.207   1.473   1.273   1.486   0.174   0.255   0.179
              0.005   0.003   0.010   0.002   0.000
 193  6.661   1.587   0.162   1.536   1.154   1.686   0.138   0.286   0.094
              0.005   0.002   0.009   0.002   0.001
 196  6.625   1.552   0.177   1.592   1.535   1.104   0.157   0.168   0.320
              0.001   0.006   0.003   0.004   0.006
 199  6.603   1.560   0.183   1.051   1.742   1.398   0.327   0.100   0.222
              0.006   0.003   0.003   0.003   0.006
 202  6.632   1.543   0.188   1.327   1.284   1.659   0.238   0.266   0.106
              0.001   0.004   0.003   0.006   0.007
 205  6.664   1.595   0.158   1.308   1.531   1.505   0.236   0.159   0.155
              0.006   0.003   0.001   0.005   0.003
 208  6.665   1.610   0.154   1.419   1.138   1.809   0.174   0.288   0.053
              0.003   0.005   0.007   0.001   0.003
 211  6.600   1.549   0.178   1.151   1.446   1.576   0.324   0.209   0.147
              0.001   0.001   0.003   0.007   0.008
 214  6.622   1.568   0.169   1.003   1.397   1.849   0.369   0.202   0.047
              0.000   0.012   0.002   0.001   0.003
 217  6.634   1.569   0.178   1.096   1.718   1.496   0.314   0.090   0.155
              0.005   0.001   0.003   0.004   0.006
 220  6.631   1.557   0.181   1.839   1.263   1.139   0.069   0.266   0.296
[...]
siesta:      8   -0.628219   -0.307334   -0.351452
siesta:      9   -1.005257    0.033702    0.750263
siesta:     10    1.320675    0.948523    0.856173
siesta:     11   -1.627646   -1.080783   -0.994579
siesta:     12    0.620691    0.006286   -0.203356
siesta:     13    0.392434   -0.654986   -0.466817
siesta:     14   -0.167415    0.397942   -0.219805
siesta:     15   -0.446223    0.068287    0.306713
siesta:     16   -0.034915   -0.125108    0.777165
siesta:     17   -0.011773   -0.139611   -0.915047
siesta:     18    0.150468    0.002427    0.123333
siesta:     19    0.761051    0.550006   -0.555246
siesta:     20   -0.147104   -0.215546    0.096748
siesta:     21   -0.742022   -0.110989    0.318950
siesta:     22    0.942517   -0.298613    0.295139
siesta:     23   -0.256939    0.350123   -0.319752
siesta:     24   -0.582633   -0.077225    0.302619
siesta:     25   -0.907458    0.929291   -0.906336
siesta:     26    1.322680   -0.880976   -0.167042
siesta:     27   -0.292854   -0.255151    0.843878
siesta:     28   -1.365606   -0.293334   -2.310556
siesta:     29    0.299283    1.049775    2.425364
siesta:     30    1.168473   -1.038940   -0.092554
siesta:     31   -0.081328    2.163482    0.211004
siesta:     32   -0.098400   -2.595425   -0.497482
siesta:     33    0.215174    0.667976    0.198689
siesta:     34    0.881493    0.615426   -0.720163
siesta:     35   -0.070221   -0.719453    0.372994
siesta:     36   -0.796695    0.337037    0.488550
siesta:     37   -1.052597   -2.627800   -0.378029
siesta:     38    0.480989    3.284866    0.164077
siesta:     39    0.814624   -0.750081    0.365324
siesta:     40    1.087624    0.742544   -2.010489
siesta:     41    0.026771   -0.183070   -0.640702
siesta:     42   -1.062973   -0.565104    2.796534
siesta:     43    0.866811   -0.901678    0.588731
siesta:     44   -0.211210    0.370788   -0.559267
siesta:     45   -0.689472    0.490736    0.120274
siesta:     46    1.619499    0.151869    0.276466
siesta:     47   -1.473363    0.030866    0.363414
siesta:     48    0.272732   -0.038902   -0.503995
siesta:     49    1.001392   -0.532150   -0.793611
siesta:     50   -0.759367   -0.489810    0.285565
siesta:     51   -0.469365    0.978643    0.272119
siesta:     52   -2.110946    2.863725   -0.215524
siesta:     53   -0.578119   -0.069438   -0.405445
siesta:     54    2.375772   -2.944924    0.861190
siesta:     55    1.880122    0.635694   -0.003556
siesta:     56   -2.011508   -0.855141    0.416971
siesta:     57    0.411210    0.047372   -0.233930
siesta:     58    1.155384    0.093702    0.421906
siesta:     59   -1.652368   -0.096874   -0.253099
siesta:     60    0.433401   -0.076634   -0.033176
siesta:     61    0.131678   -0.100209   -0.118796
siesta:     62   -0.178071   -0.219121    0.440534
siesta:     63   -0.309931    0.113927    0.029630
siesta:     64    0.206428   -0.838033   -0.221970
siesta:     65    0.222417    0.912543   -0.221131
siesta:     66   -0.474378    0.022201    0.262769
siesta:     67    0.225823    0.031940    0.703786
siesta:     68   -0.140190    0.237072   -0.336215
siesta:     69    0.214663    0.105857   -0.504266
siesta:     70    2.949507    1.721324    0.233637
siesta:     71   -0.446763   -2.492512   -0.530864
siesta:     72   -2.330863    1.050788    0.614418
siesta:     73    0.105439   -0.398167   -1.347022
siesta:     74   -0.364206    0.375476    0.909283
siesta:     75    0.142221   -0.295938    0.261173
siesta:     76   -0.334632   -2.608651   -1.911682
siesta:     77    0.442320    0.050670    0.869568
siesta:     78   -0.299870    2.455634    0.681945
siesta:     79   -0.397943   -0.178139   -0.179488
siesta:     80    0.155970    0.031389   -0.409624
siesta:     81    0.353782    0.483882    0.220624
siesta:     82    0.275140    1.541482    0.971772
siesta:     83    0.095311   -0.239933   -0.224787
siesta:     84   -0.154968   -1.527652   -0.749833
siesta:     85    0.206939    2.170431    0.065855
siesta:     86    0.503988   -0.664930   -0.082177
siesta:     87   -0.415993   -1.058714    0.374515
siesta:     88   -1.957351    0.987934    1.055158
siesta:     89    1.228439   -0.938492   -0.351721
siesta:     90    0.303745   -0.159065    0.105219
siesta:     91   -0.237389    0.456691    0.375901
siesta:     92   -0.481228   -0.238523    0.012851
siesta:     93    0.102423   -0.481049   -0.207635
siesta:     94   -0.166614    0.508288   -0.544571
siesta:     95    0.536153    0.400796    1.022249
siesta:     96   -0.567613   -1.188861   -0.338575
siesta:     97    0.884878   -0.901738    0.032755
siesta:     98   -0.513742    1.329296   -0.062556
siesta:     99   -0.004542   -0.414962   -0.225177
siesta:    100    0.985466    0.878339   -0.893272
siesta:    101   -0.796192   -0.956032    0.447058
siesta:    102    0.024125    0.274644    0.351825
siesta:    103    2.482524    0.679343    1.050635
siesta:    104   -0.184496   -0.481287   -0.150107
siesta:    105   -2.457541   -0.059418   -0.969207
siesta:    106   -1.342477   -2.151361   -1.423234
siesta:    107    1.409227    1.467144    1.522284
siesta:    108   -0.429173    0.535453    0.248501
siesta:    109    1.278889   -1.041851    0.249918
siesta:    110   -0.379933   -0.180707   -0.057448
siesta:    111   -0.838910    0.948019   -0.475447
siesta:    112   -0.003921   -0.104821    0.025222
siesta:    113    0.284710   -0.213121   -0.403508
siesta:    114   -0.302851    0.011940    0.520645
siesta:    115    0.327082    0.682024   -0.365800
siesta:    116    0.262178   -0.700283    0.224188
siesta:    117   -0.395609   -0.010217   -0.343946
siesta:    118    1.779939    0.752523   -0.116024
siesta:    119   -1.890514   -0.506458    0.605320
siesta:    120   -0.328979    0.013260    0.098358
siesta:    121    0.764274   -0.062684    1.250966
siesta:    122   -0.722958    0.363850    0.795152
siesta:    123    0.008659   -0.047928   -2.031585
siesta:    124   -1.125906   -0.282540   -1.439616
siesta:    125    1.326344    1.085109    0.623254
siesta:    126   -0.454726   -1.375938    0.444499
siesta:    127   -1.905450    0.526435   -1.462959
siesta:    128    1.644228   -0.454693    0.995134
siesta:    129    0.043245    0.103398    0.451864
siesta:    130   -0.503479   -1.418453   -0.473582
siesta:    131    0.917288    0.243570   -1.186957
siesta:    132   -0.863900    1.214145    1.642987
siesta:    133    1.809987    0.567112    0.546839
siesta:    134   -1.262028   -0.592629   -0.376143
siesta:    135   -0.368507    0.075539   -0.247680
siesta:    136   -0.512586   -2.084231    0.002512
siesta:    137    0.701601    0.449322    0.609222
siesta:    138   -0.329698    1.406327   -0.511565
siesta:    139    1.061104   -1.241054    0.331183
siesta:    140   -0.928366   -0.356306    0.005962
siesta:    141   -0.164462    1.779394   -0.207922
siesta:    142    0.755209   -0.504614    0.843347
siesta:    143   -0.633944   -0.060524   -0.755206
siesta:    144   -0.584382    0.476528    0.173305
siesta:    145    1.053398    0.884707    1.327856
siesta:    146    0.135008    0.004031   -0.347596
siesta:    147   -0.849865   -0.951120   -1.241663
siesta:    148   -0.790857    1.333264    0.937373
siesta:    149   -0.539373   -0.751485    0.478750
siesta:    150    1.121560   -0.550877   -1.408170
siesta:    151    0.474561    1.101592   -0.602746
siesta:    152    0.159709    0.056653    0.373897
siesta:    153   -0.746232   -0.629363   -0.575603
siesta:    154    0.599248    1.663308    1.293719
siesta:    155   -0.516319   -0.251817   -0.848439
siesta:    156   -0.135045   -1.464212   -0.599650
siesta:    157   -0.476184    1.157080   -0.060412
siesta:    158   -0.385899   -0.623688    0.359715
siesta:    159    0.850603   -0.878062    0.020314
siesta:    160   -0.702265   -3.346809   -1.763766
siesta:    161   -1.801027    0.842208   -1.275456
siesta:    162    2.499108    2.353849    3.086350
siesta:    163   -2.127881   -1.337352   -1.107320
siesta:    164    1.930220    0.185329    0.202634
siesta:    165    0.121826    1.342211    0.790290
siesta:    166   -0.809563    0.158168   -1.201884
siesta:    167    0.186897   -0.390072    0.340714
siesta:    168    0.749081   -0.063812    0.542285
siesta:    169    0.324506    0.280645    0.161388
siesta:    170    0.060009   -0.225868   -0.128148
siesta:    171    0.217368   -0.115874   -0.120164
siesta:    172    0.760599    0.867841    0.430201
siesta:    173    0.077622   -0.352536    0.195423
siesta:    174   -0.541226   -0.502158   -0.374773
siesta:    175    0.164313    0.275989    2.143163
siesta:    176   -0.190350    0.005117   -1.764855
siesta:    177   -0.342793   -0.014787    0.287792
siesta:    178   -0.166596    0.101426    0.024551
siesta:    179   -0.498970   -0.519203    0.038894
siesta:    180    0.191715    0.309235    0.100580
siesta:    181   -1.413295   -0.474513    0.252421
siesta:    182    0.625163   -0.191595    0.411438
siesta:    183    0.860347    1.054934   -1.028133
siesta:    184   -1.572161    0.879725   -0.660190
siesta:    185    0.684357   -0.130620   -0.472710
siesta:    186    0.711679   -0.580903    0.782169
siesta:    187   -0.545226    0.692695   -0.364927
siesta:    188    0.220940   -0.386332    0.019383
siesta:    189    0.608716   -0.114491   -0.466116
siesta:    190    0.020421   -0.354687    0.218206
siesta:    191   -0.347803    0.578382   -1.090299
siesta:    192    0.097742    0.035061    0.496571
siesta:    193   -0.221519    0.148945    0.256207
siesta:    194   -0.018650    0.197039   -0.688405
siesta:    195    0.147264   -0.233992    0.328034
siesta:    196    0.113274   -0.832111   -1.234269
siesta:    197    0.810941   -0.089169    0.182938
siesta:    198   -0.805369    1.433695    1.528051
siesta:    199   -0.777803   -1.562456   -0.004286
siesta:    200   -0.349870    0.620991   -0.146292
siesta:    201    1.170926    0.787482    0.395583
siesta:    202   -1.117802   -1.174635    1.874850
siesta:    203   -0.351112    1.015390    0.877930
siesta:    204    1.402557   -0.048178   -2.546724
siesta:    205    0.131400   -0.070431   -0.298088
siesta:    206    0.253877    0.542937   -0.132365
siesta:    207   -0.149818   -0.195391    0.386466
siesta:    208    0.613323   -1.132426    0.242965
siesta:    209   -0.172520    0.184872   -0.454872
siesta:    210   -0.376754    1.390419    0.477477
siesta:    211    0.695454   -1.465570    0.069640
siesta:    212   -0.544930    0.245211   -0.973911
siesta:    213   -0.109081    1.890583    0.281820
siesta:    214    0.761859    0.048011   -0.857081
siesta:    215   -0.079453    1.066619    0.535438
siesta:    216   -0.485392   -1.160533    0.153151
siesta:    217   -0.371844    1.381084   -0.583870
siesta:    218    0.905835   -0.810536    0.520877
siesta:    219   -0.452495   -0.457188   -0.008485
siesta:    220   -0.572957    0.149522   -1.935259
siesta:    221    0.436876    0.058168    1.776325
siesta:    222    0.202890   -0.117006    0.019685
siesta:    223   -0.084071    0.186879    0.083950
siesta:    224   -0.494422    0.077702    0.010252
siesta:    225    0.210852   -0.275415   -0.181233
siesta:    226    1.366798   -0.577130   -1.634904
siesta:    227   -1.256886    0.136966    1.529182
siesta:    228    0.077548    0.213045   -0.311640
siesta:    229   -1.257294   -0.815838   -0.662126
siesta:    230    1.308094    0.959530    1.678583
siesta:    231   -0.541935   -0.083276   -0.817139
siesta:    232   -0.652994   -0.721114    0.435780
siesta:    233    0.753836    0.635092   -0.155839
siesta:    234   -0.219006    0.185353    0.052412
siesta:    235   -2.763508   -1.715872    0.557667
siesta:    236    0.978434    0.519980    0.770064
siesta:    237    1.714381    0.956795   -1.218090
siesta:    238    0.184242   -0.078267   -0.120437
siesta:    239    0.283187   -0.129159    0.099195
siesta:    240   -0.245811    0.295325    0.191118
siesta:    241    0.204458   -0.028671   -0.220551
siesta:    242   -0.347071    0.201387   -0.160857
siesta:    243   -0.151630   -0.489288   -0.019555
siesta:    244   -2.089269    2.166647   -0.000791
siesta:    245   -0.453646   -1.244156    0.307480
siesta:    246    2.411650   -0.927138   -0.240632
siesta:    247   -0.878033   -1.083984    0.581731
siesta:    248    1.203264    0.925969   -1.023937
siesta:    249   -0.426534    0.512497    0.283804
siesta:    250    0.231503   -0.311011   -0.161210
siesta:    251    0.029288   -0.579439    0.247165
siesta:    252   -0.266053    0.134512    0.075890
siesta:    253    0.407286   -0.759745   -0.068716
siesta:    254   -0.765792    0.344171    0.097099
siesta:    255    0.302097    0.595496   -0.075465
siesta:    256    2.038456    0.834306   -0.091063
siesta:    257   -1.233101   -1.181925   -0.533949
siesta:    258   -0.635003    0.389806    0.249560
siesta:    259    1.891861    0.717076   -0.556397
siesta:    260   -1.363158   -0.865077    1.014079
siesta:    261    0.270856    0.297078   -0.106184
siesta:    262    1.088501    2.174293    1.169897
siesta:    263   -0.603333   -2.938324   -0.964167
siesta:    264   -0.008139    0.278390   -0.036003
siesta:    265   -0.247523    0.754833    0.971976
siesta:    266    0.842904   -0.685932   -1.787768
siesta:    267    0.340855   -0.045273    0.220346
siesta:    268    0.220755   -1.719554    0.177154
siesta:    269   -0.050805    0.431496   -0.067730
siesta:    270    0.013958    1.374720   -0.369591
siesta:    271   -1.624357    0.945060    0.232467
siesta:    272    0.330859   -1.199994   -0.860318
siesta:    273    1.003038    0.547980    0.476670
siesta:    274   -0.519523   -0.228596   -0.097145
siesta:    275   -0.294701    0.062941   -0.014530
siesta:    276    0.532593    0.020333    0.159150
siesta:    277   -0.594188   -0.246373    0.232652
siesta:    278    0.448196    0.019748   -0.277662
siesta:    279    0.063445    0.042676   -0.233312
siesta:    280    0.960267    0.399601    0.364533
siesta:    281   -0.782895    0.192397   -0.535317
siesta:    282   -0.088940   -0.552858    0.170032
siesta:    283   -0.308497   -0.249588    0.367461
siesta:    284    0.398789   -0.293965    0.242090
siesta:    285   -0.383042    0.167279   -0.189211
siesta:    286   -0.098456   -0.983548    1.720459
siesta:    287    1.856280    1.485797   -0.090189
siesta:    288   -1.830668   -0.711953   -1.301868
siesta:    289    1.655106   -0.133947    2.506272
siesta:    290   -1.340151    0.049759   -2.302634
siesta:    291   -0.419856   -0.094376    0.139756
siesta:    292   -0.540756   -2.530135    1.826392
siesta:    293   -0.277433    1.985567   -2.654279
siesta:    294    0.713896    0.264925    0.955649
siesta:    295   -1.860949   -1.150980    0.663489
siesta:    296    0.648153   -0.095838   -0.511039
siesta:    297    1.479050    1.382883    0.106650
siesta:    298    1.145432    0.959207    1.299602
siesta:    299    0.347432   -0.434009   -0.137641
siesta:    300   -0.888871   -0.371082   -1.085254
siesta:    301   -1.969609   -2.729240   -0.039069
siesta:    302   -0.856024    1.003946   -1.315368
siesta:    303    2.914264    2.075645    1.096723
siesta:    304   -2.188972   -1.675505   -0.292529
siesta:    305    1.592574    0.421052   -0.831993
siesta:    306    0.154659    1.443835    1.110096
siesta:    307    0.328962   -0.203140   -0.747208
siesta:    308   -0.242708    0.084618    0.449426
siesta:    309   -0.130148    0.026193    0.169248
siesta:    310   -0.368332   -0.987204   -0.350522
siesta:    311   -0.557487    0.598205    0.292817
siesta:    312    1.406140    0.349741   -0.009087
siesta:    313    2.553553    2.413157   -1.582187
siesta:    314   -2.900454   -1.175727   -0.152801
siesta:    315    0.584119   -1.238214    1.457343
siesta:    316    2.680634    0.003600    0.613330
siesta:    317   -0.993008   -0.084739   -0.700140
siesta:    318   -1.620677    0.112186    0.500810
siesta:    319   -1.647868   -0.272969   -1.954897
siesta:    320    0.935633    0.499605    0.455176
siesta:    321    0.642067   -0.311181    1.307898
siesta:    322   -0.195065   -0.795369    0.064870
siesta:    323    0.506269    0.404563   -0.715635
siesta:    324   -0.496585    0.568307    0.209859
siesta:    325    0.373844    0.213860   -2.213291
siesta:    326   -1.052703   -0.164640    1.098081
siesta:    327    0.760965    0.169595    1.093352
siesta:    328    1.668058   -0.348840    0.331291
siesta:    329   -1.556989    0.229755   -0.170381
siesta:    330   -0.224389   -0.026184    0.082918
siesta:    331    0.695326   -2.390140   -0.703604
siesta:    332   -0.013824   -0.417059    0.275090
siesta:    333   -0.528336    2.754977    1.035972
siesta:    334    0.449243    0.152063    0.510995
siesta:    335   -0.030564   -0.028509   -0.317670
siesta:    336   -0.586299   -0.004726   -0.427984
siesta:    337    0.480659    1.492966    0.446707
siesta:    338   -0.612805    0.387428    0.590181
siesta:    339    0.124083   -2.128475   -0.906659
siesta:    340    1.030891   -1.329442   -1.398972
siesta:    341    0.620834    0.256704    0.531877
siesta:    342   -1.501459    1.100583    1.041324
siesta:    343   -0.985042   -1.499796    0.524874
siesta:    344    1.012352    1.601194   -0.327462
siesta:    345    0.110218    0.432240   -0.136306
siesta:    346   -0.625946   -0.823327    1.726337
siesta:    347    0.062601    0.780505   -0.450956
siesta:    348    0.452309   -0.034913   -0.971877
siesta:    349    0.113530   -1.130550    2.929833
siesta:    350    0.035524    0.081474   -0.274864
siesta:    351   -0.362298    0.769505   -2.621349
siesta:    352    0.301446    0.900589    0.319457
siesta:    353    0.047641   -0.776645   -1.006279
siesta:    354   -0.067590   -0.002680    0.649339
siesta:    355   -0.685869    1.924947    0.423013
siesta:    356   -0.281843   -1.796660   -0.257302
siesta:    357    0.547731   -0.123963   -0.084909
siesta:    358   -1.190582   -0.806389    0.785520
siesta:    359    0.339592   -0.270396   -1.287758
siesta:    360    0.693544    0.620162    0.707873
siesta:    361    0.492744    1.114614    0.339055
siesta:    362   -0.200765   -0.381064   -1.007313
siesta:    363   -0.385141   -0.298363    0.701900
siesta:    364   -2.031616   -0.971818   -0.807876
siesta:    365    1.560028    0.780697   -0.001141
siesta:    366    0.586546    0.220925    0.642830
siesta:    367   -0.174343    0.198197    0.087768
siesta:    368    0.185267   -0.087350    0.016184
siesta:    369   -0.307008   -0.340216    0.136067
siesta:    370    1.932184    2.511976   -1.090119
siesta:    371    0.053887    0.086369    0.043419
siesta:    372   -2.087320   -2.758900    1.424533
siesta:    373    2.053895    0.597509   -0.650125
siesta:    374   -0.186591   -0.753916    0.605351
siesta:    375   -1.507596    0.099687    0.143151
siesta:    376   -0.997102    0.271999   -1.502675
siesta:    377   -0.303928    0.001185   -0.197581
siesta:    378    0.912988   -0.228190    1.641467
siesta:    379    0.706297    1.065486   -2.981519
siesta:    380    0.062126    0.092825    0.069245
siesta:    381   -0.833247   -1.168856    2.713542
siesta:    382    0.646053   -1.186918    2.009235
siesta:    383    0.467522    0.024884   -1.596040
siesta:    384   -0.737520    0.723729   -0.609101
siesta: ----------------------------------------
siesta:    Tot   -0.034695   -0.029857   -0.070286

siesta: Stress tensor (static) (eV/Ang**3):
siesta:    -0.014425   -0.003110   -0.000236
siesta:    -0.003110   -0.012984   -0.001141
siesta:    -0.000236   -0.001141   -0.015996

siesta: Cell volume =       3830.098806 Ang**3

siesta: Pressure (static):
siesta:                Solid            Molecule  Units
siesta:           0.00015758          0.00000266  Ry/Bohr**3
siesta:           0.01446830          0.00024398  eV/Ang**3
siesta:          23.18101661          0.39090355  kBar
(Free)E+ p_basis*V_orbitals  =      -60088.052807
(Free)Eharris+ p_basis*V_orbitals  =      -60088.052808
>> End of run:  12-MAR-2018  16:12:47
Job completed
