SystemName     H2O                                                                             
SystemLabel     H2O                                                                             
XML.Write              T     # default value
XML.AbortOnErrors              F     # default value
XML.AbortOnWarnings              F     # default value
timer_report_threshold          0.000000000         # default value
UseTreeTimer              F     # default value
alloc_report_level         0     # default value
alloc_report_threshold          0.000000000         # default value
xc.functional     VDW                                                                             
xc.authors     BH                                                                              
MM.Cutoff          30.00000000     Bohr     # default value
MM.UnitsEnergy     eV     # default value
MM.UnitsDistance     Ang     # default value
WriteIonPlotFiles              F     # default value
Atom.Debug.KB.Generation              F     # default value
KB.New.Reference.Orbitals              F     # default value
user-basis              F     # default value
user-basis-netcdf              F     # default value
ReparametrizePseudos              F     # default value
Restricted.Radial.Grid              T     # default value
Rmax.Radial.Grid          0.000000000         # default value
PAO.BasisSize     standard            # default value
PAO.BasisType     split          # default value
PAO.SoftDefault              F     # default value
PAO.SoftInnerRadius         0.9000000000         # default value
PAO.SoftPotential          40.00000000         # default value
PAO.SplitNorm         0.1500000000         # default value
PAO.SplitNormH         -1.000000000         # default value
Number_of_species              2
%block Chemical_species_label
     1 8 O.vdw.1
     2 1 H.vdw.2
%endblock Chemical_species_label
%block PAO.Basis
 O.vdw.1     3     -0.24233
 n=2   0   2   E    23.36061     3.39721
      4.50769     2.64066
      1.00000     1.00000
 n=2   1   2   E     2.78334     5.14253
      6.14996     2.59356
      1.00000     1.00000
 n=3   2   1   E    63.98188     0.16104
      3.54403
      1.00000
 H.vdw.2 2      0.46527
 n=1   0   2   E    99.93138     2.59932
      4.20357     1.84463
      1.00000     1.00000
 n=2   1   1   E    24.56504     2.20231
      3.5281
      1.00000
%endblock PAO.Basis
FilterCutoff          0.000000000     Ry     # default value
FilterTol          0.000000000     Ry     # default value
KB.Rmax          6.000000000     Bohr     # default value
PAO.EnergyShift         0.2000000000E-01 Ry     # default value
PAO.SplitTailNorm              F     # default value
PAO.FixSplitTable              F     # default value
PAO.NewSplitCode              F     # default value
PAO.Filter              F     # default value
PAO.Filter              F     # default value
PAO.Filter              F     # default value
PAO.Filter              F     # default value
PAO.Filter              F     # default value
PAO.OldStylePolorbs              T     # default value
PAO.SplitTailNorm              F     # default value
PAO.FixSplitTable              F     # default value
PAO.NewSplitCode              F     # default value
Vna.Filter              F     # default value
PCC.Filter              F     # default value
FilterCutoff          0.000000000     Ry     # default value
FilterTol          0.000000000     Ry     # default value
KB.Rmax          6.000000000     Bohr     # default value
PAO.EnergyShift         0.2000000000E-01 Ry     # default value
PAO.SplitTailNorm              F     # default value
PAO.FixSplitTable              F     # default value
PAO.NewSplitCode              F     # default value
PAO.Filter              F     # default value
PAO.Filter              F     # default value
PAO.Filter              F     # default value
PAO.OldStylePolorbs              T     # default value
PAO.SplitTailNorm              F     # default value
PAO.FixSplitTable              F     # default value
PAO.NewSplitCode              F     # default value
Vna.Filter              F     # default value
PAO.BasisType     split          # default value
Atom-Setup-Only              F     # default value
UseStructFile              F     # default value
MD.UseStructFile              F     # default value
LatticeConstant          1.889726878           Bohr
# above item originally: LatticeConstant          1.000000000     Ang       
%block LatticeVectors
     15.646000000000001     0.000000000000000     0.000000000000000
     0.000000000000000     15.646000000000001     0.000000000000000
     0.000000000000000     0.000000000000000     15.646000000000001
AtomicCoordinatesFormat     Ang                                                                             
NumberOfAtoms            384
ZM.UnitsLength     Bohr           # default value
ZM.UnitsAngle     rad            # default value
ZM.ForceTolLength         0.1555740000E-02 Ry/Bohr     # default value
ZM.ForceTolAngle         0.3565490000E-02 Ry/rad     # default value
ZM.MaxDisplLength         0.2000000000     Bohr     # default value
ZM.MaxDisplAngle         0.3000000000E-02 rad     # default value
ZM.CalcAllForces              F     # default value
%block AtomicCoordinatesAndAtomicSpecies
      1.847992597     16.023749643     15.568843796 1
      2.377911511     16.406420473     16.362634445 2
      2.384941743     15.235066223     15.452463290 2
     -2.729578103     18.112719094     10.695974902 1
     -3.384024467     17.399751986     10.998938018 2
     -3.148104515     19.005224691     10.801660449 2
     -4.508786252      0.487500335     11.952297005 1
     -5.092846552      0.062290037     11.304541032 2
     -4.933118137      1.036307940     12.660011785 2
      4.747201315     11.712099323     -0.318434466 1
      4.039987660     11.236371894     -0.836853948 2
      5.590734860     11.290541319     -0.515647103 2
     -2.286901447      2.190109974      1.086643612 1
     -1.629915964      2.121308827      1.755990593 2
     -2.921567186      2.881722450      1.406107499 2
     -7.038254935      2.613895419     17.605125525 1
     -7.328290619      2.431148175     16.692384555 2
     -7.607184206      2.147826159     18.198830635 2
      9.492788209     14.762108477      9.995936139 1
      9.331187945     15.528575366      9.465339395 2
      8.666906455     14.663605034     10.468498102 2
      5.180510976      2.684693040      7.084385460 1
      5.013214944      3.529620461      6.650746069 2
      4.659552244      2.785274844      7.896081509 2
      7.920541916     12.223516374     16.662939105 1
      8.792927693     11.757348965     16.631638183 2
      7.929610455     12.755808085     15.892535817 2
      7.133281476     -2.522049137     12.057081205 1
      7.405414211     -2.204328835     12.978651219 2
      7.911903194     -3.144312737     11.944018749 2
     12.135247336      6.057082924      8.540497902 1
     11.963580875      5.136543735      8.153880021 2
     11.396032291      6.540677492      8.188002549 2
      8.807197880      6.543867099      1.271570452 1
      9.248892487      7.229735740      0.797826960 2
      8.013812195      6.983598921      1.594577936 2
     12.779036998     10.950788422     17.994962660 1
     12.947345578     11.934990869     18.046308810 2
     13.546095766     10.563549032     18.468017383 2
     20.435540976      5.939142109     14.266259084 1
     19.830011129      5.504221366     13.661917618 2
     20.033805648      5.714073753     15.183064908 2
     15.416528883     -1.166596462      1.332488889 1
     15.959201659     -0.394894096      1.189732365 2
     14.498091407     -0.896554652      1.182840260 2
     -10.846988711     16.463246125     11.286965845 1
     -9.916174300     16.621391616     11.246267507 2
     -11.074166091     16.661327190     12.175969539 2
     14.923518874      6.276075345      7.495151683 1
     14.047926665      6.378472631      7.875158774 2
     15.039431127      5.366389561      7.409929779 2
      7.733686720     10.207148683      7.229672881 1
      8.171159337     10.809355125      7.818964597 2
      8.341713855      9.404781514      7.349041382 2
      1.526454279     -3.230144493      5.925728678 1
      0.630908762     -3.732142048      5.851472241 2
      2.205492188     -3.870418406      5.726142935 2
      0.891446954     24.021463458      0.390034160 1
     -0.103116382     24.127919962      0.263593646 2
      1.199109230     24.783892045      0.865208976 2
      4.389671003     14.472066053     15.142281287 1
      4.734867306     13.595664376     15.220235930 2
      4.228874528     14.558795874     14.220890995 2
     -2.064019111     13.188746670      4.458996076 1
     -1.831325842     14.123692964      4.554681639 2
     -3.023472186     13.203718630      4.671935094 2
      7.527879350      9.492536497     -11.123851378 1
      7.267303344      8.641637804     -11.467562281 2
      7.161314550      9.591694705     -10.240209791 2
      7.400033521      1.271917896      6.372825188 1
      7.226365913      0.317953984      6.127534865 2
      6.522145408      1.628014612      6.712298451 2
      7.131860392     20.048688147     12.533342456 1
      6.772804540     20.535874588     13.276539697 2
      7.818053269     20.657889335     12.198306342 2
     11.579191354      9.797897998      9.448225239 1
     11.871204347      9.492271617     10.326115626 2
     11.300149278     10.746317398      9.629626950 2
     20.749732723     10.699695621     11.846222387 1
     20.194396959     11.164129531     11.187802075 2
     21.488636527     11.284314245     12.054353629 2
     10.766376808     -8.346738990      5.843917339 1
     10.532129767     -7.674286260      5.216910801 2
     10.718301255     -9.228325020      5.374186419 2
     -5.374699383      1.754469398     13.991331390 1
     -6.243552795      2.044530690     14.166419058 2
     -4.922648696      2.539143455     13.789064293 2
      1.598075207      2.981266360      6.025766728 1
      2.302149959      2.297127782      5.804486642 2
      1.746778307      3.842316851      5.655242237 2
      4.467982489     10.791629543      2.303684562 1
      4.793711453     10.994564316      1.431655224 2
      4.272505598      9.852722129      2.260240894 2
     -0.050798124      6.027924060      2.127658793 1
     -0.428295251      5.635802562      1.371228428 2
      0.255708245      6.911937956      2.056191116 2
      5.606928432      8.245630954     13.183930985 1
      5.138070059      9.076969579     13.057361892 2
      5.254308251      7.732806284     13.932648180 2
     14.676636750      4.458253253     -0.024277565 1
     13.866383377      3.994202607      0.181476979 2
     14.621895134      4.898452677     -0.857162157 2
     12.001993907     12.397752984      6.930946722 1
     12.167646805     11.463945367      7.047887163 2
     11.035317010     12.370288898      6.662879536 2
      3.726183810     14.790097814     24.809146640 1
      4.275923304     15.370448436     25.396614118 2
      3.011348396     15.431980083     24.629413598 2
     14.786987768     11.260192528      5.878157508 1
     14.245556032     10.812389951      6.549059961 2
     14.279412924     12.031148243      5.543665617 2
     -2.380962395     12.650757189     -4.099447583 1
     -1.742743746     12.808203530     -4.795691660 2
     -2.482482526     13.456092403     -3.553185186 2
      1.084335053     14.271188765      4.034604225 1
      1.281075657     13.338328360      4.241768876 2
      0.566263183     14.197179687      3.214533865 2
      5.466007817     14.014659198      4.464273187 1
      4.579928969     13.961795695      4.869305135 2
      5.831633557     13.217907880      4.109476086 2
      9.544907471     12.976878900      5.580440793 1
      8.731605592     13.489716266      5.832380447 2
      9.416135412     12.852558979      4.602130940 2
      3.585872735     16.902294372      5.616027924 1
      4.445773762     17.204611028      5.956129133 2
      3.349738059     16.134171146      6.157773125 2
     10.632116867     11.057974048      0.595597071 1
     11.343388910     10.716231199      1.174441842 2
     10.914835177     11.370061125     -0.245950074 2
      8.826140598      4.472997213     -0.706333460 1
      9.548649943      4.991791063     -1.094211742 2
      8.512980970      4.982213770      0.076103404 2
     15.651027132      3.029470548     11.262368910 1
     14.668683492      2.960510127     11.336876253 2
     15.827084801      2.763572718     10.334032257 2
     10.910236315     12.349784652     10.263830395 1
     11.752601924     12.566836110     10.743707370 2
     10.577058746     13.175442041      9.844558183 2
      3.343919548     11.981311559      9.839608617 1
      2.420651598     11.624500501      9.966623191 2
      3.360823425     12.953329956      9.749540759 2
      5.577288779      6.071653690      6.936691088 1
      4.988402833      5.995072775      6.169195579 2
      5.607972902      6.922723726      7.376083611 2
     -4.471949097      4.436868140     13.583397727 1
     -4.298914100      4.936521735     12.794454186 2
     -4.038555610      4.789792381     14.313273966 2
      7.483903854      1.922471639     11.231099148 1
      7.359251935      2.834531674     11.459498620 2
      8.180035467      1.819725255     10.542220552 2
      5.887155577      0.638661075      0.806431922 1
      6.113474027      0.524181324      1.749163218 2
      5.275603220     -0.055298172      0.456611642 2
     -0.379679031     13.180364442      9.693361905 1
     -1.051440565     13.536222154      9.101131246 2
     -0.118616562     12.256805343      9.464548121 2
     13.975733212     15.947773752      3.866328167 1
     13.370761866     16.531488657      4.283241898 2
     14.616103586     16.480465662      3.333681771 2
     17.217158400     -7.590380993      4.919340326 1
     16.462960326     -7.078705342      4.479024078 2
     17.835331672     -6.951030063      5.472580388 2
     15.833823908     17.551334179      2.757832099 1
     16.819162814     17.509097171      2.671340024 2
     15.628989934     18.367314770      3.233121855 2
     -2.126221680     15.105659818     12.809746517 1
     -2.862014799     15.439962333     12.306555328 2
     -2.005611390     15.668314658     13.585375913 2
     14.347777562      3.375640737      6.081425108 1
     13.928069390      2.903366852      6.793998063 2
     15.246853641      3.055121000      6.044980164 2
     19.178929232      5.427077870     16.924662961 1
     19.628348107      4.566736974     17.019414925 2
     18.307102450      5.111260891     16.621266721 2
      0.176558415     -0.604732877      6.284012050 1
      0.486679207     -0.826182689      5.351543627 2
      0.930943238     -0.820075831      6.811700695 2
      7.617130823      7.073417723      9.897849556 1
      6.804516391      6.687476930      9.576779212 2
      8.028279340      7.476395170      9.152589263 2
      3.165470782     -6.248155334      6.833584506 1
      3.827290780     -6.673383575      7.403986323 2
      3.723658461     -5.754542339      6.183222105 2
      6.992059868     20.398047100      3.358202048 1
      7.633907277     20.559934726      2.666295158 2
      7.483266018     19.758253133      3.939993884 2
     -0.195386927      9.680456942     12.694086037 1
      0.382792447      8.945092844     12.965321439 2
     -0.760824182     10.106688346     13.317918648 2
     11.113225568      3.538113245     -7.827449896 1
     10.903842071      3.793049636     -8.759202005 2
     11.713369960      2.793292441     -7.916070953 2
     10.738342766      0.679236010      2.694163807 1
     10.686102357      0.803415793      3.638239914 2
     10.172752308      1.367680584      2.379656461 2
     14.630352092      0.939685349     14.549680537 1
     15.581376060      0.864991302     14.719913825 2
     14.299031175      1.555336822     15.270179049 2
     12.998809067      8.823349627     11.520621293 1
     13.174562705      7.909951172     11.715740802 2
     13.827059200      9.294287073     11.756345712 2
     15.929739340     12.348270474     -0.232863709 1
     15.912107110     13.261784399      0.112654309 2
     16.528138776     12.440428553     -1.056471888 2
     13.681547779      8.049773077     -0.343807265 1
     12.994868789      7.721971784      0.222705666 2
     13.257604000      8.836374433     -0.676155216 2
     12.753828036     -6.105018726      6.817856583 1
     12.681675077     -6.361835101      7.734106786 2
     13.064870705     -6.844687615      6.322540936 2
      1.439419928      5.274378178     20.494989410 1
      0.768906332      5.101109078     19.821054947 2
      1.494866954      6.251999632     20.626346966 2
      8.371452854      3.523636956      5.255052276 1
      8.370075239      4.293830756      5.874281210 2
      8.150546234      2.745856066      5.795521238 2
     16.949573514     -3.505161794     -2.854277580 1
     16.236429816     -3.050274602     -3.261410023 2
     16.797061303     -4.456742524     -2.849240309 2
      6.337601829     12.381777653      9.090668415 1
      6.657974069     12.531953383     10.008059821 2
      5.413594135     12.226678390      9.198533921 2
     17.560654602      3.739037572     15.499093551 1
     17.859941503      3.060663539     14.916067714 2
     16.612312019      3.677590919     15.581153787 2
      3.502075311      8.112131479      2.821576378 1
      2.885298718      8.099371627      3.601374934 2
      3.378770295      7.311191546      2.323146495 2
     13.739435794     26.475457766     14.259832445 1
     14.077465850     27.031856455     14.997511161 2
     12.976242656     26.917080221     13.871734407 2
      8.700843515     -1.187976207     18.219584876 1
      9.420213973     -0.550443097     18.048544363 2
      8.627008250     -1.908592060     17.601611411 2
     16.290609019      8.852125984      7.942624850 1
     15.914590547      8.412330479      7.239093713 2
     17.125054716      9.303613044      7.668694371 2
      9.321843887      5.674281948     -4.416852857 1
     10.074831386      5.236341432     -4.810200766 2
      8.860893572      5.983723164     -5.192027229 2
     19.989252538      7.713758569     10.769335316 1
     20.520857095      7.899273321     11.556384041 2
     20.282324330      6.845867003     10.393200742 2
     18.965599511     20.315568872     -3.471876715 1
     19.010280262     19.364400631     -3.351061340 2
     18.061055266     20.492374573     -3.449338355 2
     15.359051062      9.742615967      3.606569481 1
     15.955146221     10.146324783      2.919917949 2
     15.452975097     10.323801456      4.377504246 2
     -2.414891653     17.641573990      8.018109969 1
     -2.364088252     17.906212294      8.947746709 2
     -2.203196297     16.734335778      7.898391717 2
     10.389817245      9.019127072      3.804780475 1
      9.561618059      9.508122263      3.829562086 2
     11.046693016      9.684118834      4.094898783 2
     13.572737360     14.705040191      8.004547295 1
     12.895931759     14.180555386      7.486821983 2
     14.326403604     14.603126388      7.453843677 2
      6.524351224      0.409667376     18.907872713 1
      5.704983328      0.020730140     19.310543781 2
      7.165693670     -0.276257722     18.751107603 2
     16.102373794      5.702484247     11.808359933 1
     15.957275503      4.784226277     11.353784745 2
     16.459221409      6.269781446     11.134272270 2
      9.413174327     -7.464835234      8.418055753 1
      9.815852792     -7.717719435      7.543843506 2
     10.030612585     -6.829022162      8.806225425 2
     12.519547441     -0.874113766      1.218463465 1
     12.188517697     -0.573183707      2.043765405 2
     12.624119463     -0.057808169      0.721033204 2
      5.119695686     -12.686743218      2.103767994 1
      5.358080453     -13.426836192      1.491574166 2
      5.976203710     -12.296442469      2.362815324 2
      1.593434236     10.870034204      1.667894208 1
      1.275114441     11.519426651      1.033516347 2
      2.526654572     10.951307524      1.852285812 2
      1.154205306      3.908081392      8.860740984 1
      1.462636210      4.817401341      9.002961618 2
      1.424947119      3.865080851      7.941767514 2
      2.106865690     17.694905545     12.978864589 1
      1.276057582     17.869709471     12.485254497 2
      2.029590523     16.750346623     13.167321472 2
     13.704137544      7.541497339      4.906689770 1
     12.792550820      7.395540981      5.077420712 2
     14.168539376      6.962857406      5.518583187 2
      9.211297433      1.581698788      8.516640542 1
      9.843222379      2.290716353      8.223860094 2
      8.462742147      1.600272360      7.859888075 2
      9.960995920      8.281132928     15.129412109 1
      9.398264911      8.263743957     14.289225967 2
     10.331557102      9.152301532     15.064009364 2
     -3.053250027     20.947947897     -4.522066054 1
     -3.149495571     21.609605646     -5.270385082 2
     -2.390870572     21.243613264     -3.881588380 2
      5.197848126      8.443900725      8.304031374 1
      4.808540371      8.395938004      9.165330957 2
      5.890148223      9.148423764      8.354024086 2
     10.987568527     11.844448473     13.674860445 1
     10.632372065     12.717648867     13.822035654 2
     10.211613818     11.398716550     13.259425937 2
      1.593758658     -8.819168865      9.791728237 1
      1.114187540     -8.238286430      9.135367942 2
      2.392959398     -8.230022712     10.001887824 2
     -1.526011808      6.067893628     13.407381643 1
     -0.594315743      5.969499929     13.101819339 2
     -1.509346780      6.894825037     13.982287880 2
      8.596525951      8.159308739     12.756361259 1
      8.886606417      7.589755943     12.052664909 2
      7.645686228      8.121189692     12.667087690 2
      7.509327899     -1.455668875     -1.012128953 1
      7.019715836     -0.603855119     -0.896366710 2
      8.427735802     -1.091238371     -1.073755056 2
      3.717630829     18.223964981      9.489513296 1
      2.771916996     17.916114546      9.428909730 2
      4.194148530     17.652771528     10.130130913 2
     11.637013863      4.633352624     16.128842937 1
     11.981978269      5.198364625     16.796513465 2
     10.689098569      4.697220134     16.369723162 2
     18.522874288      1.440347782     18.486013159 1
     19.258800048      2.088068795     18.463267592 2
     18.699745422      0.922725897     19.305615597 2
      3.384112309     14.100058001     12.756244404 1
      3.964869844     14.323869978     12.008049813 2
      3.139678257     13.181658105     12.692834901 2
      1.471209349     16.328465336      8.768125533 1
      0.973636974     16.157170966      9.597201674 2
      0.920079060     16.220398970      8.035093840 2
      6.506723677      7.467858214      3.035688178 1
      5.584656726      7.806404306      2.880073048 2
      6.376632905      6.542280850      3.182961775 2
      1.509289075     -7.886172745     13.398224992 1
      1.430419354     -7.974427614     14.358227232 2
      1.652554423     -8.714951612     13.089741688 2
      4.505707367     -11.122035383      4.982760881 1
      5.207490333     -10.955674980      4.326680309 2
      3.709630274     -10.803651366      4.497118986 2
     15.660740832      0.009735744     10.952817553 1
     14.976080943     -0.055365872     11.640596717 2
     15.651257362     -0.912685485     10.556753497 2
     -3.231198209      6.920160783      1.860685777 1
     -2.480085976      7.060957797      2.448746496 2
     -3.990244969      7.355333939      2.306266244 2
     13.575355716      3.585693223      3.616856871 1
     13.942071930      4.473249786      3.368771579 2
     13.794847044      3.521287621      4.546150987 2
      3.112387229     10.069088991     13.683118922 1
      2.923616651      9.151981515     13.709469468 2
      3.395901831     10.194230447     12.768014002 2
      7.563063354     17.212257087     14.164181539 1
      6.734170896     17.559693776     14.469379228 2
      7.574105693     17.524169358     13.215711865 2
      0.100033806     10.546414524     10.019857354 1
      0.074900265      9.766938391      9.431998328 2
     -0.083942784     10.278524151     10.921547879 2
      9.296149373     10.851969768     11.887375001 1
      9.134515416      9.876074026     11.894369750 2
      9.672918679     11.114733174     11.048067989 2
     19.752904988     -4.249578837      4.987096093 1
     20.136955633     -4.262999146      4.085716600 2
     20.391779949     -3.699481853      5.444137216 2
      5.316584871      5.166862457      9.780707824 1
      5.194210010      4.601194357      8.991623011 2
      5.086942103      4.559354758     10.481126012 2
     19.229347558     -1.541415680      6.606787814 1
     18.476333852     -2.045993505      6.385248525 2
     19.246780062     -1.315854155      7.542352288 2
     11.208339829     20.264039394     20.447220573 1
     10.394721613     20.030151467     20.036699325 2
     11.940032844     20.092567429     19.835686711 2
     11.052747149     15.906850185      5.305607989 1
     11.493214305     16.381094826      6.012497492 2
     10.478022830     15.177224355      5.705459459 2
      8.070704909      6.011169982     21.957439661 1
      8.292239416      6.713739226     21.372324609 2
      7.090563711      6.048062381     22.186302028 2
     10.548100412     -1.263575391     14.715244306 1
     10.894229059     -0.437727145     14.397987594 2
     11.020893530     -1.441940761     15.564910777 2
      7.198359572     14.041325445     -8.994989597 1
      6.436344753     13.736627876     -9.506323786 2
      7.113401859     13.609646616     -8.096831839 2
      6.749509038     12.072159487      3.577986752 1
      6.958859859     12.034739881      2.611192163 2
      6.990766736     11.211673984      3.895523402 2
UseSaveData              F     # default value
MD.UseSaveXV              F     # default value
MD.UseSaveZM              F     # default value
WriteCoorInitial              T     # default value
MD.TypeOfRun     none     # default value
MaxBondDistance          6.000000000     Bohr     # default value
Output-Structure-Only              F     # default value
WriteCoorXmol              F     # default value
#:physical? MaxWalltime              F
MaxWalltime         0.1797693135+309     # default value
#:physical? MaxWalltime.Slack              F
MaxWalltime.Slack          5.000000000         # default value
SpinPolarized              F     # default value
NonCollinearSpin              F     # default value
HSetupOnly              F     # default value
LongOutput              F     # default value
WriteDenchar              F     # default value
WriteMullikenPop              1
WriteHirshfeldPop              F     # default value
WriteVoronoiPop              F     # default value
PartialChargesAtEveryGeometry              F     # default value
PartialChargesAtEveryScfStep              F     # default value
MeshCutoff          199.9982134             Ry
# above item originally: MeshCutoff          2721.138600     eV        
NetCharge          0.000000000         # default value
MinSCFIterations         0     # default value
MaxSCFIterations        50     # default value
SCFMustConverge              F     # default value
MixHamiltonian              F     # default value
TS.MixH              F     # default value
MixCharge              F     # default value
Compat-pre-v4-DM-H              F     # default value
SCF.MixAfterConvergence              F     # default value
SCF.Recompute-H-After-Scf              F     # default value
DM.NumberPulay              3
DM.NumberBroyden         0     # default value
DM.FIRE.Mixing              F     # default value
DM.MixSCF1              F     # default value
DM.PulayOnFile              F     # default value
DM.Pulay.Avoid.First.After.Kick              F     # default value
DM.MixingWeight         0.3000000000    
DM.OccupancyTolerance         0.1000000000E-11     # default value
DM.NumberKick         0     # default value
DM.KickMixingWeight         0.5000000000         # default value
DM.Tolerance         0.1000000000E-03     # default value
DM.RequireEnergyConvergence              F     # default value
DM.EnergyTolerance         0.7349806700E-06 Ry     # default value
DM.RequireHarrisConvergence              F     # default value
DM.HarrisTolerance         0.7349806700E-06 Ry     # default value
MonitorForcesInSCF              F     # default value
UseSaveData              F     # default value
DM.UseSaveDM              T
NeglNonOverlapInt              F     # default value
SolutionMethod     diagon     # default value
Diag.DivideAndConquer              T     # default value
Diag.Memory          1.000000000         # default value
ElectronicTemperature         0.3674899422E-03         Ry
# above item originally: ElectronicTemperature         0.5000000000E-02 eV        
FixSpin              F     # default value
ON.MaxNumIter      1000     # default value
ON.etol         0.1000000000E-07     # default value
ON.eta          0.000000000     Ry     # default value
ON.eta_alpha          0.000000000     Ry     # default value
ON.eta_beta          0.000000000     Ry     # default value
On.RcLWF          9.500000000     Bohr     # default value
ON.UseSaveLWF              F     # default value
ON.functional     kim     # default value
ON.ChemicalPotentialUse              F     # default value
ON.ChemicalPotential              F     # default value
ON.ChemicalPotentialRc          9.500000000     Bohr     # default value
ON.ChemicalPotentialTemperature         0.5000000000E-01 Ry     # default value
ON.ChemicalPotentialOrder       100     # default value
MD.VariableCell              F     # default value
compat-pre-v4-dynamics              F     # default value
MD.TypeOfRun     cg     # default value
MD.UseSaveCG              F     # default value
Optim.Broyden              F     # default value
MD.NumCGsteps         0     # default value
MD.MaxCGDispl         0.2000000000     Bohr     # default value
MD.MaxForceTol         0.1555740000E-02 Ry/Bohr     # default value
MD.MaxStressTol         0.6797730000E-04 Ry/Bohr**3     # default value
GeometryMustConverge              F     # default value
MD.InitialTimeStep         1     # default value
MD.FinalTimeStep         1     # default value
MD.LengthTimeStep          1.000000000     fs     # default value
MD.Quench              F     # default value
MD.FireQuench              F     # default value
MD.InitialTemperature          0.000000000     K     # default value
MD.TargetTemperature          0.000000000     K     # default value
MD.TargetPressure          0.000000000     Ry/Bohr**3     # default value
MD.NoseMass          100.0000000     Ry*fs**2     # default value
MD.ParrinelloRahmanMass          100.0000000     Ry*fs**2     # default value
MD.AnnealOption     TemperatureAndPressure     # default value
MD.TauRelax          100.0000000     fs     # default value
MD.BulkModulus         0.6797730000E-02 Ry/Bohr**3     # default value
MD.FCDispl         0.4000000000E-01 Bohr     # default value
MD.FCfirst         1     # default value
MD.FClast       384     # default value
UseSpatialDecomposition              F     # default value
UseDomainDecomposition              F     # default value
Harris_functional              F     # default value
WriteKpoints              F     # default value
WriteForces              F     # default value
WriteDM              T     # default value
WriteDM.NetCDF              F     # default value
WriteDM.History.NetCDF              F     # default value
WriteDMHS.NetCDF              F     # default value
WriteDMHS.History.NetCDF              F     # default value
SCF.Read.Charge.NetCDF              F     # default value
SCF.Read.Deformation.Charge.NetCDF              F     # default value
SaveInitialChargeDensity              F     # default value
AnalyzeChargeDensityOnly              F     # default value
UseNewDiagk              F     # default value
WriteBands              F     # default value
WriteKbands              F     # default value
WriteEigenvalues              F     # default value
WriteCoorStep              F     # default value
WriteMDhistory              F     # default value
WriteMDXmol              T     # default value
UseSaveData              F     # default value
SaveHS              F     # default value
FixAuxiliaryCell              F     # default value
NaiveAuxiliaryCell              F     # default value
ReInitialiseDM              T     # default value
DM.AllowReuse              T     # default value
DM.AllowExtrapolation              T     # default value
DM.NormalizationTolerance         0.1000000000E-04     # default value
DM.NormalizeDuringSCF              T     # default value
MullikenInSCF              F     # default value
WarningMinimumAtomicDistance          1.000000000     Bohr     # default value
BornCharge              F     # default value
ChangeKgridInMD              F     # default value
Diag.ParallelOverK              F     # default value
MD.RelaxCellOnly              F     # default value
MD.RemoveIntraMolecularPressure              F     # default value
COOP.Write              F     # default value
SaveRho              F     # default value
SaveDeltaRho              F     # default value
SaveRhoXC              F     # default value
SaveElectrostaticPotential              F     # default value
SaveNeutralAtomPotential              F     # default value
SaveTotalPotential              F     # default value
SaveIonicCharge              F     # default value
SaveBaderCharge              F     # default value
SaveTotalCharge              F     # default value
Siesta2Wannier90.WriteMmn              F     # default value
Siesta2Wannier90.WriteUnk              F     # default value
Siesta2Wannier90.WriteAmn              F     # default value
Siesta2Wannier90.WriteEig              F     # default value
Siesta2Wannier90.NumberOfBandsUp         0     # default value
Siesta2Wannier90.NumberOfBandsDown         0     # default value
Siesta2Wannier90.NumberOfBands         0     # default value
RcSpatial          0.000000000     Bohr     # default value
ProcessorGridX         1     # default value
ProcessorGridY         1     # default value
ProcessorGridZ         1     # default value
processorY         8     # default value
blocksize        24     # default value
NumberOfEigenStates      2944     # default value
TimeReversalSymmetryForKpoints              T     # default value
kgrid_cutoff          0.000000000     Bohr     # default value
LongOutput              F     # default value
WriteWaveFunctions              F     # default value
ForceAuxCell              F     # default value
AtomicCoordinatesFormat     Ang                                                                             
AtomCoorFormatOut     Ang                        # default value
LatticeConstant          1.889726878           Bohr
# above item originally: LatticeConstant          1.000000000     Ang       
DM.FormattedFiles              T
DM.FormattedInput              T     # default value
DM.FormattedOutput              T     # default value
SCF.Pulay.Damping         -1.000000000         # default value
SCF.MixingWeightAfterPulay         0.5000000000         # default value
SCF.PulayMinimumHistory         2     # default value
SCF.PulayDmaxRegion          1000.000000         # default value
SCF.LinearMixingAfterPulay              F     # default value
SCF.Pulay.UseSVD              F     # default value
SCF.Pulay.DebugSVD              T     # default value
SCF.Pulay.RcondSVD         0.1000000000E-07     # default value
MeshSubDivisions         2     # default value
LatticeConstant          1.889726878           Bohr
# above item originally: LatticeConstant          1.000000000     Ang       
%block LatticeVectors
     15.646000000000001     0.000000000000000     0.000000000000000
     0.000000000000000     15.646000000000001     0.000000000000000
     0.000000000000000     0.000000000000000     15.646000000000001
PROCS_PER_NODE         4     # default value
PROCS_PER_NODE         4     # default value
DirectPhi              F     # default value
SimulateDoping              F     # default value
Diag.ParallelOverK              F     # default value
LatticeConstant          1.889726878           Bohr
# above item originally: LatticeConstant          1.000000000     Ang       
%block LatticeVectors
     15.646000000000001     0.000000000000000     0.000000000000000
     0.000000000000000     15.646000000000001     0.000000000000000
     0.000000000000000     0.000000000000000     15.646000000000001
Diag.AllInOne              F     # default value
Diag.DivideAndConquer              T     # default value
Diag.NoExpert              F     # default value
Diag.PreRotate              F     # default value
Diag.Use2D              T     # default value
SingleExcitation              F     # default value
OccupationFunction     FD     # default value
OccupationFunction     FD     # default value
SCF.Want.Variational.EKS              F     # default value
SCF.Want.Variational.EKS              F     # default value
SCF.Want.Variational.EKS              F     # default value
SCF.Want.Variational.EKS              F     # default value
SCF.Want.Variational.EKS              F     # default value
SCF.Want.Variational.EKS              F     # default value
SCF.Want.Variational.EKS              F     # default value
SCF.Want.Variational.EKS              F     # default value
SCF.Want.Variational.EKS              F     # default value
SCF.Want.Variational.EKS              F     # default value
SCF.Want.Variational.EKS              F     # default value
#:list? Grid.CellSampling              F
WriteCoorXmol              F     # default value
WriteCoorCerius              F     # default value
BasisPressure         0.2000000000     GPa     # default value
OpticalCalculation              F     # default value
