Siesta Version: siesta-4.0--530
Architecture  : x86_64-unknown-linux-gnu--unknown
Compiler flags: mpif90 -g -O2
PP flags      : -DMPI -DFC_HAVE_FLUSH -DFC_HAVE_ABORT 
PARALLEL version

* Running on   64 nodes in parallel
>> Start of run:  12-MAR-2018  16:10:21

                           ***********************       
                           *  WELCOME TO SIESTA  *       
                           ***********************       

reinit: Reading from standard input
************************** Dump of input data file ****************************
SystemName  H2O
SystemLabel  H2O
NumberOfSpecies  2
NumberOfAtoms  384
%block ChemicalSpecieslabel
    1 8 O.vdw.1
    2 1 H.vdw.2
%endblock ChemicalSpecieslabel
%block PAO.Basis
O.vdw.1     3     -0.24233
n=2   0   2   E    23.36061     3.39721
     4.50769     2.64066
     1.00000     1.00000
n=2   1   2   E     2.78334     5.14253
     6.14996     2.59356
     1.00000     1.00000
n=3   2   1   E    63.98188     0.16104
     3.54403
     1.00000
H.vdw.2 2      0.46527
n=1   0   2   E    99.93138     2.59932
     4.20357     1.84463
     1.00000     1.00000
n=2   1   1   E    24.56504     2.20231
     3.5281
     1.00000
%endblock PAO.Basis
LatticeConstant  1.0 Ang
%block LatticeVectors
    15.646000000000001     0.000000000000000     0.000000000000000
    0.000000000000000     15.646000000000001     0.000000000000000
    0.000000000000000     0.000000000000000     15.646000000000001
%endblock LatticeVectors
AtomicCoordinatesFormat  Ang
%block AtomicCoordinatesAndAtomicSpecies
     1.881755114     16.021687159     15.560681895 1
     2.265835925     16.382378356     16.305735384 2
     2.382119223     15.199775808     15.428326558 2
    -2.715902559     18.073667931     10.731134314 1
    -3.320323883     17.492314114     11.147008130 2
    -3.143841701     18.913616227     10.784998136 2
    -4.472467552      0.510848521     11.960073107 1
    -5.108721072      0.108196321     11.369794333 2
    -4.974160364      1.066059032     12.600512977 2
     4.757676806     11.674288340     -0.289993213 1
     4.107782066     11.235768730     -0.840261648 2
     5.559874692     11.268040825     -0.640748045 2
    -2.314543145      2.199503610      1.090036822 1
    -1.616915016      2.117642151      1.781882806 2
    -2.883664158      2.874620268      1.374592666 2
    -7.070380004      2.612217451     17.584884007 1
    -7.337388440      2.357699972     16.704079563 2
    -7.583602006      2.168150582     18.283056103 2
     9.471987193     14.769282923     10.004549544 1
     9.430779129     15.577455654      9.399898108 2
     8.686840358     14.740814679     10.559300441 2
     5.160105678      2.674395524      7.101679132 1
     5.106904588      3.497092946      6.567980659 2
     4.667922043      2.669358607      7.949536854 2
     7.923118784     12.201746406     16.662253256 1
     8.817885932     11.843303754     16.633609185 2
     7.842947139     12.687686111     15.773533830 2
     7.128343164     -2.515535634     12.037225690 1
     7.309160662     -2.097160473     12.863014304 2
     7.807645749     -3.131692367     11.836056074 2
    12.139021777      6.018715700      8.554053462 1
    11.907435795      5.202157135      8.144892796 2
    11.534136847      6.638100583      8.089534441 2
     8.810259503      6.556509234      1.304350892 1
     9.355086827      7.230274024      0.785484687 2
     8.099937727      7.170855479      1.586404526 2
    12.773811938     10.914426091     18.012658578 1
    12.862609519     11.845377018     18.071358147 2
    13.546247092     10.607258772     18.491021263 2
    20.461839428      5.952602862     14.303385849 1
    19.870226042      5.586595791     13.608892084 2
    20.062873324      5.695887255     15.092116434 2
    15.421267422     -1.183923602      1.344604013 1
    15.840019450     -0.307420278      1.105990977 2
    14.457230851     -0.947918492      1.262768825 2
    -10.862032112     16.502810616     11.281537147 1
    -9.865442081     16.613644588     11.242858610 2
    -11.135343615     16.783805063     12.177215207 2
    14.901464044      6.238447353      7.511084844 1
    14.008456348      6.333804057      7.871693843 2
    15.042943119      5.241501806      7.467246750 2
     7.713651484     10.184845149      7.223734576 1
     8.108703471     10.875544706      7.786119953 2
     8.289627359      9.477673162      7.290188819 2
     1.520386369     -3.217974397      5.932723332 1
     0.714415007     -3.705986191      6.001319634 2
     2.232697342     -3.888100039      5.811605380 2
     0.858645156     24.011801531      0.393889324 1
    -0.072008195     24.194964095      0.327212235 2
     1.180138425     24.798402344      0.912494151 2
     4.426847315     14.496033170     15.146084309 1
     4.724454606     13.560145632     15.175892637 2
     4.173880403     14.598851592     14.180052732 2
    -2.044685130     13.188603661      4.492691502 1
    -1.765037335     14.108568379      4.619235869 2
    -2.971243438     13.212310601      4.583095372 2
     7.544824078      9.491443780     -11.093323966 1
     7.241102059      8.641695823     -11.484226729 2
     7.115913659      9.574407054     -10.244623720 2
     7.395009130      1.301365188      6.367181137 1
     7.244569319      0.392207226      6.148772465 2
     6.603593947      1.595273818      6.792454915 2
     7.122149144     20.057243379     12.534378865 1
     6.789885531     20.540524626     13.318621828 2
     7.910456124     20.504512465     12.216858894 2
    11.585274959      9.780160092      9.474155453 1
    11.802892891      9.519776960     10.376585110 2
    11.287279430     10.650066718      9.639148883 2
    20.739336870     10.677785598     11.840171461 1
    20.113435453     11.224429300     11.321790468 2
    21.492333443     11.248140671     12.002843307 2
    10.792920543     -8.327714950      5.813740224 1
    10.648290932     -7.695920415      5.040278753 2
    10.803931357     -9.212192179      5.446525158 2
    -5.377159791      1.751496936     14.018928433 1
    -6.273061767      2.130075039     14.277802824 2
    -4.828198345      2.604767118     13.867774948 2
     1.546123199      2.984200984      6.040981833 1
     2.256192333      2.436664108      5.744200641 2
     1.777612927      3.869537667      5.687805090 2
     4.463499257     10.790845887      2.310781895 1
     4.700005828     11.106865247      1.413274261 2
     4.221083907      9.853046041      2.353096380 2
    -0.003126110      5.997995108      2.099311380 1
    -0.440264841      5.705136160      1.228978077 2
     0.201427680      6.962205659      1.926650991 2
     5.614242462      8.244225090     13.133521961 1
     5.177264892      9.090017479     13.058111125 2
     5.208528845      7.640545905     13.797939209 2
    14.707350174      4.468773011     -0.039894775 1
    13.847671825      4.019590974      0.218003541 2
    14.528016301      4.805327595     -0.959306618 2
    12.002401801     12.437559134      6.978018591 1
    12.029698735     11.476869034      7.198718416 2
    11.165569152     12.457136936      6.494269212 2
     3.719113372     14.806375618     24.805609647 1
     4.223217310     15.299697795     25.421689467 2
     3.016429076     15.458682370     24.588940423 2
    14.774178885     11.287262978      5.878463688 1
    14.191806205     10.773376849      6.453077223 2
    14.301199429     12.025119677      5.425204212 2
    -2.322705820     12.641389071     -4.104348929 1
    -1.752148023     12.940669562     -4.846871410 2
    -2.549401611     13.383816776     -3.551625395 2
     1.095983760     14.287441307      4.005521582 1
     1.371942863     13.415368882      4.344347010 2
     0.506520698     14.208618203      3.237657166 2
     5.466893305     13.984958235      4.449860972 1
     4.628854641     13.975481366      4.888645668 2
     5.754123581     13.098524717      4.054902543 2
     9.525651592     12.995148302      5.570548392 1
     8.786331372     13.475984044      5.923713834 2
     9.364854499     12.900869911      4.627687214 2
     3.552161447     16.893469779      5.641427877 1
     4.419409865     17.170505288      5.929406033 2
     3.356062509     16.219676241      6.284849986 2
    10.625716431     11.049300123      0.613481224 1
    11.335582142     10.622171711      1.086667245 2
    10.966447116     11.379726877     -0.289000434 2
     8.830977908      4.460882539     -0.704179013 1
     9.514510765      4.931784616     -1.166573060 2
     8.543799512      5.019400973      0.003434762 2
    15.625009991      3.032720047     11.232844760 1
    14.686028124      3.031082230     11.351259328 2
    15.685580698      2.783815729     10.304423533 2
    10.921793358     12.375978715     10.270240994 1
    11.780806261     12.621345025     10.729776712 2
    10.465700034     13.094650631      9.861918441 2
     3.325700997     11.946552156      9.810297444 1
     2.477138727     11.648551052      9.999153825 2
     3.346733382     12.872145728      9.539411126 2
     5.576221131      6.076812317      6.911698107 1
     4.996346387      5.947707324      6.175163443 2
     5.654671927      6.913064776      7.405849130 2
    -4.486629767      4.435241617     13.617360085 1
    -4.341977185      4.965863850     12.814498730 2
    -3.979319891      4.815829567     14.410284112 2
     7.498252754      1.920419320     11.239759228 1
     7.301523198      2.863675905     11.464222943 2
     8.216714261      1.813444382     10.640138066 2
     5.862506343      0.656641704      0.785586125 1
     6.243229889      0.531597533      1.694735147 2
     5.363540726     -0.144907458      0.562468414 2
    -0.388863018     13.211840196      9.705355443 1
    -1.046902057     13.546985125      9.084278520 2
    -0.087024566     12.299713579      9.591752887 2
    13.965821694     15.960842797      3.883352476 1
    13.301618818     16.550363181      4.238575085 2
    14.567686125     16.413147770      3.314516719 2
    17.207873390     -7.588965103      4.966781112 1
    16.551745058     -7.108867695      4.495586326 2
    17.741479820     -7.128571725      5.536466485 2
    15.819161797     17.542175450      2.777892423 1
    16.770880854     17.489461442      2.691288928 2
    15.644852887     18.394305108      3.173775144 2
    -2.143980231     15.129832452     12.816758190 1
    -2.977352224     15.503542405     12.437673651 2
    -2.037768163     15.756669763     13.548261660 2
    14.356353899      3.385363568      6.060255605 1
    13.984816066      2.915383780      6.836308894 2
    15.303701675      3.053734792      6.061728679 2
    19.193645071      5.387041378     16.946731815 1
    19.569870897      4.490150350     17.052324009 2
    18.332827826      5.078019854     16.588663350 2
     0.174042756     -0.554055627      6.316076349 1
     0.485478390     -0.720251645      5.412520204 2
     1.012823962     -0.770004141      6.806608282 2
     7.626680304      7.051781802      9.884915506 1
     6.765536835      6.737303913      9.545473824 2
     8.112710023      7.563982338      9.181189639 2
     3.166567788     -6.251010960      6.853802610 1
     3.824585605     -6.730625420      7.386719271 2
     3.721414243     -5.681426470      6.289369737 2
     7.000659893     20.389924221      3.355918457 1
     7.600182667     20.510632306      2.601014822 2
     7.478905819     19.792449474      3.954969647 2
    -0.213460295      9.688603830     12.654091781 1
     0.271897118      8.890387964     12.934443754 2
    -0.748581860     10.093582655     13.436258728 2
    11.129615394      3.551441034     -7.878834699 1
    10.870533248      3.811831873     -8.752514766 2
    11.904956794      2.912694238     -7.925396615 2
    10.716592406      0.687135064      2.673636656 1
    10.696583561      0.754280692      3.652332369 2
    10.203430593      1.435700215      2.277621297 2
    14.628719704      0.955970600     14.565584779 1
    15.547904933      0.658017527     14.709325145 2
    14.408908225      1.593900196     15.233005463 2
    12.994783348      8.848457661     11.491261136 1
    13.172510926      7.910766688     11.671966899 2
    13.806000095      9.239559016     11.842307985 2
    15.932066330     12.387608559     -0.227144054 1
    15.876190164     13.251916332      0.181505742 2
    16.416637387     12.298300837     -1.019721965 2
    13.680220402      8.025103734     -0.315509797 1
    12.920767374      7.667502970      0.195966766 2
    13.358969951      8.873636720     -0.739680178 2
    12.777869249     -6.109206006      6.837189568 1
    12.560318774     -6.472470851      7.743716655 2
    13.054120728     -6.874021626      6.272138338 2
     1.431755931      5.300790650     20.495294341 1
     0.839876526      5.103495010     19.781016101 2
     1.484557226      6.255958345     20.517847063 2
     8.394638747      3.497946780      5.244241078 1
     8.344390792      4.302024961      5.769834878 2
     8.044596118      2.721092185      5.706035970 2
    16.916792201     -3.494751311     -2.869086489 1
    16.150408944     -3.097391539     -3.349866237 2
    16.669908661     -4.438949449     -2.948122161 2
     6.351182385     12.387230776      9.097196948 1
     6.695367719     12.546617885      9.993434494 2
     5.400482109     12.218688585      9.327532130 2
    17.582917641      3.714605389     15.499087385 1
    17.880973000      3.070940836     14.829927059 2
    16.627886391      3.658287630     15.637421297 2
     3.530489906      8.098268268      2.823045044 1
     2.988222356      8.018576637      3.600812050 2
     3.339096054      7.321792614      2.237198673 2
    13.757697841     26.483196841     14.253026744 1
    14.024863906     27.129476535     14.914262219 2
    12.873099724     26.864583789     13.993610559 2
     8.659778491     -1.139213641     18.203767254 1
     9.537150439     -0.740988158     18.048286222 2
     8.593097890     -1.920908709     17.608568988 2
    16.243906822      8.849096118      7.971069656 1
    15.909946107      8.312474096      7.140177989 2
    17.086384070      9.175981014      7.710666944 2
     9.353455405      5.687226876     -4.379598731 1
    10.072229220      5.197127436     -4.765057393 2
     8.696374998      5.993048140     -5.092864556 2
    19.991031390      7.715830787     10.749260278 1
    20.412390444      7.802708795     11.640817729 2
    20.299565361      6.884613717     10.380811147 2
    18.977267033     20.290138455     -3.471093902 1
    19.046967825     19.334576145     -3.432128065 2
    17.987958693     20.463866468     -3.541971846 2
    15.351288227      9.780972253      3.596847735 1
    15.982968067     10.059215252      2.949366217 2
    15.440444126     10.345117844      4.366080322 2
    -2.407798759     17.639923661      8.010020222 1
    -2.348098721     17.724339527      9.004013271 2
    -2.187230807     16.663720370      7.925462211 2
    10.388356208      9.046125163      3.817109612 1
     9.536798082      9.508140814      3.685374375 2
    10.952245112      9.732083187      4.134388086 2
    13.564402646     14.718192844      7.999196441 1
    12.923371728     14.206109329      7.487985277 2
    14.398166139     14.581795827      7.430184264 2
     6.529850544      0.428355156     18.918316836 1
     5.826382806     -0.073220161     19.266766568 2
     7.285320082     -0.226348640     18.802259300 2
    16.085694253      5.651482838     11.787170175 1
    15.972058880      4.786311827     11.457030013 2
    16.452732405      6.252193217     11.079494225 2
     9.430945819     -7.419589344      8.378879403 1
     9.739882617     -7.659693444      7.521113325 2
    10.117209147     -6.829529825      8.761249229 2
    12.520649521     -0.834866155      1.222159844 1
    12.128373247     -0.513849498      2.073043002 2
    12.616176220     -0.047586966      0.681248119 2
     5.134839049     -12.686496691      2.061714421 1
     5.414038399     -13.414892818      1.493152370 2
     5.953080874     -12.274042919      2.294579076 2
     1.581671401     10.831744769      1.648856162 1
     1.264626992     11.577295910      1.083170786 2
     2.506386199     11.043206927      1.899985519 2
     1.139807143      3.904874998      8.872872344 1
     1.298710332      4.860149562      8.975078521 2
     1.451887505      3.658430305      7.962072380 2
     2.106565971     17.683231597     12.971968791 1
     1.312450993     17.782661613     12.426648724 2
     2.061596532     16.728120768     13.066728849 2
    13.738291461      7.522180537      4.912334501 1
    12.792178628      7.242724887      4.979321606 2
    14.213458524      6.923665906      5.541307715 2
     9.181089233      1.567781871      8.510768983 1
     9.830380819      2.178214911      8.205779201 2
     8.517634735      1.567770134      7.839624893 2
     9.953163712      8.279564285     15.111492655 1
     9.390687858      8.318612024     14.355623525 2
    10.269768004      9.199692556     15.067780823 2
    -3.064207708     20.930227343     -4.537803462 1
    -3.077916299     21.420072972     -5.335616575 2
    -2.540473764     21.273914399     -3.798072664 2
     5.205033076      8.457245872      8.302840114 1
     4.785937870      8.501361796      9.234897560 2
     5.899237570      9.095533950      8.375438335 2
    10.953130348     11.845012860     13.691429526 1
    10.630716801     12.753187905     13.881280717 2
    10.420216240     11.370982646     12.994107037 2
     1.625891134     -8.794166749      9.802117707 1
     1.067907381     -8.248400051      9.257488584 2
     2.340332249     -8.284863546     10.087998002 2
    -1.514002413      6.070384579     13.401671831 1
    -0.651147367      6.034938003     12.978184130 2
    -1.573168040      6.796049936     14.019181267 2
     8.590179555      8.159734549     12.757790739 1
     8.787747076      7.453001290     12.093662273 2
     7.592527676      8.192777519     12.659899697 2
     7.536647434     -1.462201829     -1.021498716 1
     7.004740603     -0.702632617     -0.839874500 2
     8.405595391     -1.057856242     -1.063541236 2
     3.709715010     18.242929366      9.510223814 1
     2.815497862     17.958472447      9.541220916 2
     4.164618041     17.623001940     10.057380185 2
    11.636804894      4.610950579     16.141038122 1
    12.111495438      5.259177685     16.729175496 2
    10.723695462      4.652331267     16.395972808 2
    18.536518150      1.449209136     18.521730825 1
    19.284097492      2.039338347     18.465774085 2
    18.649568103      0.918281983     19.305046990 2
     3.356939640     14.092859613     12.747001125 1
     3.920065929     14.368799769     12.020446514 2
     3.132920030     13.158873594     12.696901669 2
     1.471245225     16.336620726      8.745438712 1
     0.931820493     16.199730466      9.567661528 2
     0.849136452     16.222250149      7.978416903 2
     6.518252242      7.484034340      3.042871656 1
     5.599211405      7.673855651      2.860574974 2
     6.409682713      6.508266494      3.155306240 2
     1.482577655     -7.878776022     13.384108896 1
     1.470245117     -7.963006311     14.369910982 2
     1.620587332     -8.843394390     13.006122847 2
     4.486325075     -11.071987542      4.977065414 1
     5.213946896     -11.063806564      4.311792847 2
     3.702094293     -10.886994597      4.466488105 2
    15.665586317     -0.027236851     10.958290975 1
    14.949231785      0.190914720     11.584644421 2
    15.682323510     -0.903933499     10.657393581 2
    -3.232430027      6.918289371      1.876093179 1
    -2.453472767      6.992992781      2.457241527 2
    -3.897192667      7.367281078      2.381538200 2
    13.600922211      3.560671497      3.589779596 1
    13.933837832      4.418579650      3.361907812 2
    13.820483850      3.549728784      4.591199717 2
     3.127397225     10.078145852     13.675995595 1
     2.915888301      9.095338210     13.683179699 2
     3.419858232     10.249794021     12.763423012 2
     7.580855598     17.213492514     14.141759368 1
     6.766311287     17.586538617     14.537193528 2
     7.596660680     17.470987346     13.235894670 2
     0.084485196     10.550995724     10.075422261 1
     0.062788719      9.773893225      9.497103569 2
    -0.112378006     10.228407745     10.966966640 2
     9.314748767     10.850305238     11.923324268 1
     9.229049331      9.894165269     11.840091376 2
     9.766967726     11.195541407     11.136473137 2
    19.757178152     -4.267425086      4.998586334 1
    20.061449400     -4.344228791      4.080957286 2
    20.367719657     -3.710377526      5.455672140 2
     5.322745714      5.147619590      9.770669337 1
     5.234258437      4.622725401      8.991466824 2
     5.116592000      4.496805580     10.484631246 2
    19.217610674     -1.549200263      6.588964021 1
    18.388454625     -2.070688188      6.338170875 2
    19.117288489     -1.313002586      7.526581552 2
    11.221344385     20.277812687     20.444618045 1
    10.344822291     19.975711586     20.084243465 2
    11.911474062     20.176686970     19.796343522 2
    11.052794728     15.887002523      5.268608446 1
    11.514810452     16.313356608      6.016310610 2
    10.518955554     15.236211367      5.709400751 2
     8.051354274      6.008022279     21.967278786 1
     8.235370334      6.722008008     21.351347500 2
     7.115887325      6.046692588     22.213518987 2
    10.567323544     -1.284908147     14.676828014 1
    10.880261115     -0.397919637     14.417286718 2
    10.990454916     -1.470313037     15.513812726 2
     7.223351576     14.009186676     -9.000034490 1
     6.420601561     13.836768339     -9.539888481 2
     7.133935333     13.707606009     -8.089831863 2
     6.775879686     12.070683114      3.536401121 1
     6.934232931     12.183890433      2.605230356 2
     7.080943479     11.180471621      3.859206367 2
%endblock AtomicCoordinatesAndAtomicSpecies
XC.functional  VDW
XC.authors  BH
DM.MixingWeight  0.3
DM.NumberPulay  3
DM.UseSaveDM  True
DM.FormattedFiles  True
MeshCutoff  2721.1386 eV
ElectronicTemperature  0.00500000 eV
WriteMullikenPop  1
************************** End of input data file *****************************

reinit: -----------------------------------------------------------------------
reinit: System Name: H2O
reinit: -----------------------------------------------------------------------
reinit: System Label: H2O                                                         
reinit: -----------------------------------------------------------------------

initatom: Reading input for the pseudopotentials and atomic orbitals ----------
 Species number:            1  Label: O.vdw.1 Atomic number:           8
 Species number:            2  Label: H.vdw.2 Atomic number:           1
Ground state valence configuration:   2s02  2p04
Reading pseudopotential information in formatted form from O.vdw.1.psf

Valence configuration for pseudopotential generation:
2s( 2.00) rc: 1.14
2p( 4.00) rc: 1.14
3d( 0.00) rc: 1.14
4f( 0.00) rc: 1.14
Ground state valence configuration:   1s01
Reading pseudopotential information in formatted form from H.vdw.2.psf

Valence configuration for pseudopotential generation:
1s( 1.00) rc: 1.25
2p( 0.00) rc: 1.25
3d( 0.00) rc: 1.25
4f( 0.00) rc: 1.25
For O.vdw.1, standard SIESTA heuristics set lmxkb to 3
 (one more than the basis l, including polarization orbitals).
Use PS.lmax or PS.KBprojectors blocks to override.
For H.vdw.2, standard SIESTA heuristics set lmxkb to 2
 (one more than the basis l, including polarization orbitals).
Use PS.lmax or PS.KBprojectors blocks to override.

<basis_specs>
===============================================================================
O.vdw.1              Z=   8    Mass=  16.000        Charge=-0.24233    
Lmxo=2 Lmxkb= 3    BasisType=split      Semic=F
L=0  Nsemic=0  Cnfigmx=2
          n=1  nzeta=2  polorb=0
            splnorm:   0.15000    
               vcte:    23.361    
               rinn:    3.3972    
               qcoe:    0.0000    
               qyuk:    0.0000    
               qwid:   0.10000E-01
                rcs:    4.5077      2.6407    
            lambdas:    1.0000      1.0000    
L=1  Nsemic=0  Cnfigmx=2
          n=1  nzeta=2  polorb=0
            splnorm:   0.15000    
               vcte:    2.7833    
               rinn:    5.1425    
               qcoe:    0.0000    
               qyuk:    0.0000    
               qwid:   0.10000E-01
                rcs:    6.1500      2.5936    
            lambdas:    1.0000      1.0000    
L=2  Nsemic=0  Cnfigmx=3
          n=1  nzeta=1  polorb=0
            splnorm:   0.15000    
               vcte:    63.982    
               rinn:   0.16104    
               qcoe:    0.0000    
               qyuk:    0.0000    
               qwid:   0.10000E-01
                rcs:    3.5440    
            lambdas:    1.0000    
-------------------------------------------------------------------------------
L=0  Nkbl=1  erefs: 0.17977+309
L=1  Nkbl=1  erefs: 0.17977+309
L=2  Nkbl=1  erefs: 0.17977+309
L=3  Nkbl=1  erefs: 0.17977+309
===============================================================================
</basis_specs>

atom: Called for O.vdw.1               (Z =   8)

read_vps: Pseudopotential generation method:
read_vps: ATM3      Troullier-Martins                       
Total valence charge:    6.00000

read_vps: Pseudopotential includes a core correction:
read_vps: Pseudo-core for xc-correction

xc_check: Exchange-correlation functional:
xc_check: VDW Berland-Hyldgaard
xc_check: WARNING: Pseudopotential generated with GGA PBE functional
V l=0 = -2*Zval/r beyond r=  1.1278
V l=1 = -2*Zval/r beyond r=  1.1278
V l=2 = -2*Zval/r beyond r=  1.1278
V l=3 = -2*Zval/r beyond r=  1.1278
All V_l potentials equal beyond r=  1.1278
This should be close to max(r_c) in ps generation
All pots = -2*Zval/r beyond r=  1.1278

VLOCAL1: 99.0% of the norm of Vloc inside     34.126 Ry
VLOCAL1: 99.9% of the norm of Vloc inside     77.774 Ry
atom: Maximum radius for 4*pi*r*r*local-pseudopot. charge    1.37759
atom: Maximum radius for r*vlocal+2*Zval:    1.18566
GHOST: No ghost state for L =  0
GHOST: No ghost state for L =  1
GHOST: No ghost state for L =  2
GHOST: No ghost state for L =  3

KBgen: Kleinman-Bylander projectors: 
   l= 0   rc=  1.262145   el= -1.750162   Ekb=  9.253102   kbcos=  0.327868
   l= 1   rc=  1.262145   el= -0.658346   Ekb= -7.898073   kbcos= -0.392576
   l= 2   rc=  1.343567   el=  0.002386   Ekb= -1.922781   kbcos= -0.003578
   l= 3   rc=  1.394919   el=  0.003508   Ekb= -0.738254   kbcos= -0.000365

KBgen: Total number of  Kleinman-Bylander projectors:   16
atom: -------------------------------------------------------------------------

atom: SANKEY-TYPE ORBITALS:
atom: Selected multiple-zeta basis: split     

atom: basis set generated (by rescaling the valence charge)
atom: for an anion of charge  -0.2423

SPLIT: Orbitals with angular momentum L= 0

SPLIT: Basis orbitals for state 2s

   izeta = 1
                 lambda =    1.000000
                     rc =    4.574469
                 energy =   -1.747125
                kinetic =    1.486382
    potential(screened) =   -3.233508
       potential(ionic) =  -11.045689

   izeta = 2
                 rmatch =    2.639108
              splitnorm =    0.146289
                 energy =   -1.544315
                kinetic =    2.317735
    potential(screened) =   -3.862050
       potential(ionic) =  -12.314290

SPLIT: Orbitals with angular momentum L= 1

SPLIT: Basis orbitals for state 2p

   izeta = 1
                 lambda =    1.000000
                     rc =    6.174996
                 energy =   -0.651333
                kinetic =    4.269728
    potential(screened) =   -4.921061
       potential(ionic) =  -12.264742

   izeta = 2
                 rmatch =    2.639108
              splitnorm =    0.214693
                 energy =   -0.406979
                kinetic =    7.103166
    potential(screened) =   -7.510145
       potential(ionic) =  -16.083971

SPLIT: Orbitals with angular momentum L= 2

SPLIT: Basis orbitals for state 3d

   izeta = 1
                 lambda =    1.000000
                     rc =    3.562532
                 energy =    3.653736
                kinetic =    6.475620
    potential(screened) =   -2.821883
       potential(ionic) =   -9.990305
atom: Total number of Sankey-type orbitals: 13

atm_pop: Valence configuration (for local Pseudopot. screening):
 2s( 2.00)                                                            
 2p( 4.00)                                                            
 3d( 0.00)                                                            
Vna: chval, zval:    6.00000   6.00000

Vna:  Cut-off radius for the neutral-atom potential:   6.174996
comcore: Pseudo-core radius Rcore=  1.377587

atom: _________________________________________________________________________

<basis_specs>
===============================================================================
H.vdw.2              Z=   1    Mass=  1.0100        Charge= 0.46527    
Lmxo=1 Lmxkb= 2    BasisType=split      Semic=F
L=0  Nsemic=0  Cnfigmx=1
          n=1  nzeta=2  polorb=0
            splnorm:   0.15000    
               vcte:    99.931    
               rinn:    2.5993    
               qcoe:    0.0000    
               qyuk:    0.0000    
               qwid:   0.10000E-01
                rcs:    4.2036      1.8446    
            lambdas:    1.0000      1.0000    
L=1  Nsemic=0  Cnfigmx=2
          n=1  nzeta=1  polorb=0
            splnorm:   0.15000    
               vcte:    24.565    
               rinn:    2.2023    
               qcoe:    0.0000    
               qyuk:    0.0000    
               qwid:   0.10000E-01
                rcs:    3.5281    
            lambdas:    1.0000    
-------------------------------------------------------------------------------
L=0  Nkbl=1  erefs: 0.17977+309
L=1  Nkbl=1  erefs: 0.17977+309
L=2  Nkbl=1  erefs: 0.17977+309
===============================================================================
</basis_specs>

atom: Called for H.vdw.2               (Z =   1)

read_vps: Pseudopotential generation method:
read_vps: ATM3      Troullier-Martins                       
Total valence charge:    1.00000

xc_check: Exchange-correlation functional:
xc_check: VDW Berland-Hyldgaard
xc_check: WARNING: Pseudopotential generated with GGA PBE functional
V l=0 = -2*Zval/r beyond r=  1.2343
V l=1 = -2*Zval/r beyond r=  1.2189
V l=2 = -2*Zval/r beyond r=  1.2189
All V_l potentials equal beyond r=  1.2343
This should be close to max(r_c) in ps generation
All pots = -2*Zval/r beyond r=  1.2343

VLOCAL1: 99.0% of the norm of Vloc inside     28.493 Ry
VLOCAL1: 99.9% of the norm of Vloc inside     64.935 Ry
atom: Maximum radius for 4*pi*r*r*local-pseudopot. charge    1.45251
atom: Maximum radius for r*vlocal+2*Zval:    1.21892
GHOST: No ghost state for L =  0
GHOST: No ghost state for L =  1
GHOST: No ghost state for L =  2

KBgen: Kleinman-Bylander projectors: 
   l= 0   rc=  1.364359   el= -0.474566   Ekb= -2.022290   kbcos= -0.345658
   l= 1   rc=  1.434438   el=  0.001422   Ekb= -0.443448   kbcos= -0.022709
   l= 2   rc=  1.470814   el=  0.002365   Ekb= -0.140530   kbcos= -0.002880

KBgen: Total number of  Kleinman-Bylander projectors:    9
atom: -------------------------------------------------------------------------

atom: SANKEY-TYPE ORBITALS:
atom: Selected multiple-zeta basis: split     

atom: basis set generated (by rescaling the valence charge)
atom: for a cation of charge   0.4653

SPLIT: Orbitals with angular momentum L= 0

SPLIT: Basis orbitals for state 1s

   izeta = 1
                 lambda =    1.000000
                     rc =    4.260636
                 energy =   -0.875216
                kinetic =    1.371864
    potential(screened) =   -2.247080
       potential(ionic) =   -2.300626

   izeta = 2
                 rmatch =    1.865767
              splitnorm =    0.571489
                 energy =    0.470272
                kinetic =    4.356176
    potential(screened) =   -3.885904
       potential(ionic) =   -3.840372

SPLIT: Orbitals with angular momentum L= 1

SPLIT: Basis orbitals for state 2p

   izeta = 1
                 lambda =    1.000000
                     rc =    3.576223
                 energy =    0.839521
                kinetic =    2.014191
    potential(screened) =   -1.174670
       potential(ionic) =   -1.303990
atom: Total number of Sankey-type orbitals:  5

atm_pop: Valence configuration (for local Pseudopot. screening):
 1s( 1.00)                                                            
 2p( 0.00)                                                            
Vna: chval, zval:    1.00000   1.00000

Vna:  Cut-off radius for the neutral-atom potential:   4.260636

atom: _________________________________________________________________________

prinput: Basis input ----------------------------------------------------------

PAO.BasisType split     

%block ChemicalSpeciesLabel
    1    8 O.vdw.1                 # Species index, atomic number, species label
    2    1 H.vdw.2                 # Species index, atomic number, species label
%endblock ChemicalSpeciesLabel

%block PAO.Basis                 # Define Basis set
O.vdw.1               3  -0.242            # Label, l-shells, ionic net charge
 n=2   0   2                         # n, l, Nzeta 
   4.574      2.639   
   1.000      1.000   
 n=2   1   2                         # n, l, Nzeta 
   6.175      2.639   
   1.000      1.000   
 n=3   2   1                         # n, l, Nzeta 
   3.563   
   1.000   
H.vdw.2               2   0.465            # Label, l-shells, ionic net charge
 n=1   0   2                         # n, l, Nzeta 
   4.261      1.866   
   1.000      1.000   
 n=2   1   1                         # n, l, Nzeta 
   3.576   
   1.000   
%endblock PAO.Basis

prinput: ----------------------------------------------------------------------

coor:   Atomic-coordinates input format  =     Cartesian coordinates
coor:                                          (in Angstroms)

siesta: Atomic coordinates (Bohr) and species
siesta:      3.55600  30.27661  29.40544  1        1
siesta:      4.28181  30.95822  30.81339  2        2
siesta:      4.50155  28.72342  29.15532  2        3
siesta:     -5.13231  34.15430  20.27891  1        4
siesta:     -6.27451  33.05570  21.06480  2        5
siesta:     -5.94100  35.74157  20.38070  2        6
siesta:     -8.45174   0.96536  22.60127  1        7
siesta:     -9.65409   0.20446  21.48581  2        8
siesta:     -9.39980   2.01456  23.81153  2        9
siesta:      8.99071  22.06122  -0.54801  1       10
siesta:      7.76259  21.23253  -1.58787  2       11
siesta:     10.50664  21.29352  -1.21084  2       12
siesta:     -4.37385   4.15646   2.05987  1       13
siesta:     -3.05553   4.00177   3.36727  2       14
siesta:     -5.44934   5.43225   2.59760  2       15
siesta:    -13.36109   4.93638  33.23063  1       16
siesta:    -13.86566   4.45541  31.56615  2       17
siesta:    -14.33094   4.09721  34.54998  2       18
siesta:     17.89947  27.90991  18.90587  1       19
siesta:     17.82160  29.43714  17.76324  2       20
siesta:     16.41576  27.85611  19.95419  2       21
siesta:      9.75119   5.05388  13.42023  1       22
siesta:      9.65065   6.60855  12.41169  2       23
siesta:      8.82110   5.04436  15.02245  2       24
siesta:     14.97253  23.05797  31.48711  1       25
siesta:     16.66340  22.38061  31.43298  2       26
siesta:     14.82103  23.97626  29.80767  2       27
siesta:     13.47062  -4.75368  22.74707  1       28
siesta:     13.81232  -3.96306  24.30758  2       29
siesta:     14.75432  -5.91804  22.36691  2       30
siesta:     22.93944  11.37373  16.16482  1       31
siesta:     22.50180   9.83066  15.39162  2       32
siesta:     21.79637  12.54420  15.28701  2       33
siesta:     16.64898  12.39001   2.46487  1       34
siesta:     17.67856  13.66324   1.48435  2       35
siesta:     15.30667  13.55096   2.99787  2       36
siesta:     24.13902  20.62528  34.03901  1       37
siesta:     24.30682  22.38453  34.14993  2       38
siesta:     25.59871  20.04482  34.94298  2       39
siesta:     38.66729  11.24879  27.02949  1       40
siesta:     37.54930  10.55714  25.71709  2       41
siesta:     37.91335  10.76367  28.51998  2       42
siesta:     29.14198  -2.23729   2.54093  1       43
siesta:     29.93331  -0.58094   2.09002  2       44
siesta:     27.32022  -1.79131   2.38629  2       45
siesta:    -20.52627  31.18580  21.31902  1       46
siesta:    -18.64299  31.39525  21.24593  2       47
siesta:    -21.04276  31.71681  23.01161  2       48
siesta:     28.15970  11.78896  14.19390  1       49
siesta:     26.47216  11.96916  14.87535  2       50
siesta:     28.42705   9.90501  14.11106  2       51
siesta:     14.57669  19.24658  13.65089  1       52
siesta:     15.32323  20.55181  14.71364  2       53
siesta:     15.66513  17.91021  13.77647  2       54
siesta:      2.87311  -6.08109  11.21123  1       55
siesta:      1.35005  -7.00330  11.34086  2       56
siesta:      4.21919  -7.34745  10.98235  2       57
siesta:      1.62260  45.37575   0.74434  1       58
siesta:     -0.13608  45.72187   0.61834  2       59
siesta:      2.23014  46.86221   1.72436  2       60
siesta:      8.36553  27.39354  28.62196  1       61
siesta:      8.92793  25.62497  28.67829  2       62
siesta:      7.88749  27.58784  26.79643  2       63
siesta:     -3.86390  24.92286   8.48996  1       64
siesta:     -3.33544  26.66134   8.72909  2       65
siesta:     -5.61484  24.96766   8.66080  2       66
siesta:     14.25766  17.93624 -20.96335  1       67
siesta:     13.68371  16.33044 -21.70205  2       68
siesta:     13.44713  18.09301 -19.35954  2       69
siesta:     13.97455   2.45922  12.03223  1       70
siesta:     13.69026   0.74116  11.61950  2       71
siesta:     12.47899   3.01463  12.83588  2       72
siesta:     13.45892  37.90271  23.68655  1       73
siesta:     12.83103  38.81598  25.16856  2       74
siesta:     14.94860  38.74793  23.08653  2       75
siesta:     21.89301  18.48183  17.90357  1       76
siesta:     22.30424  17.98978  19.60891  2       77
siesta:     21.32988  20.12572  18.21536  2       78
siesta:     39.19168  20.17810  22.37469  1       79
siesta:     38.00890  21.21111  21.39509  2       80
siesta:     40.61464  21.25591  22.68210  2       81
siesta:     20.39567 -15.73711  10.98638  1       82
siesta:     20.12236 -14.54319   9.52475  2       83
siesta:     20.41648 -17.40853  10.29244  2       84
siesta:    -10.16136   3.30985  26.49195  1       85
siesta:    -11.85437   4.02526  26.98115  2       86
siesta:     -9.12398   4.92230  26.20631  2       87
siesta:      2.92175   5.63932  11.41581  1       88
siesta:      4.26359   4.60463  10.85497  2       89
siesta:      3.35920   7.31237  10.74840  2       90
siesta:      8.43479  20.39175   4.36675  1       91
siesta:      8.88173  20.98894   2.67070  2       92
siesta:      7.97670  18.61957   4.44671  2       93
siesta:     -0.00591  11.33457   3.96713  1       94
siesta:     -0.83198  10.78115   2.32243  2       95
siesta:      0.38064  13.15667   3.64084  2       96
siesta:     10.60938  15.57933  24.81877  1       97
siesta:      9.78362  17.17765  24.67626  2       98
siesta:      9.84270  14.43854  26.07434  2       99
siesta:     27.79287   8.44476  -0.07539  1      100
siesta:     26.16832   7.59593   0.41197  2      101
siesta:     27.45398   9.08076  -1.81283  2      102
siesta:     22.68126  23.50359  13.18655  1      103
siesta:     22.73285  21.68815  13.60361  2      104
siesta:     21.09988  23.54059  12.27240  2      105
siesta:      7.02811  27.98001  46.87583  1      106
siesta:      7.98073  28.91225  48.04005  2      107
siesta:      5.70023  29.21269  46.46638  2      108
siesta:     27.91916  21.32984  11.10869  1      109
siesta:     26.81864  20.35874  12.19455  2      110
siesta:     27.02536  22.72419  10.25215  2      111
siesta:     -4.38928  23.88877  -7.75610  1      112
siesta:     -3.31108  24.45433  -9.15926  2      113
siesta:     -4.81767  25.29176  -6.71160  2      114
siesta:      2.07111  26.99936   7.56934  1      115
siesta:      2.59260  25.35138   8.20963  2      116
siesta:      0.95719  26.85041   6.11829  2      117
siesta:     10.33094  26.42775   8.40902  1      118
siesta:      8.74727  26.40984   9.23821  2      119
siesta:     10.87372  24.75263   7.66266  2      120
siesta:     18.00088  24.55728  10.52682  1      121
siesta:     16.60377  25.46593  11.19420  2      122
siesta:     17.69702  24.37912   8.74506  2      123
siesta:      6.71261  31.92404  10.66076  1      124
siesta:      8.35148  32.44757  11.20496  2      125
siesta:      6.34204  30.65076  11.87665  2      126
siesta:     20.07970  20.88016   1.15931  1      127
siesta:     21.42115  20.07300   2.05350  2      128
siesta:     20.72359  21.50458  -0.54613  2      129
siesta:     16.68814   8.42985  -1.33071  1      130
siesta:     17.97983   9.31973  -2.20450  2      131
siesta:     16.14545   9.48530   0.00649  2      132
siesta:     29.52700   5.73101  21.22701  1      133
siesta:     27.75258   5.72792  21.45078  2      134
siesta:     29.64146   5.26065  19.47255  2      135
siesta:     20.63921  23.38722  19.40795  1      136
siesta:     22.26251  23.85089  20.27635  2      137
siesta:     19.77731  24.74531  18.63633  2      138
siesta:      6.28467  22.57572  18.53878  1      139
siesta:      4.68112  22.01258  18.89567  2      140
siesta:      6.32441  24.32484  18.02688  2      141
siesta:     10.53753  11.48352  13.06122  1      142
siesta:      9.44173  11.23954  11.66937  2      143
siesta:     10.68579  13.06380  13.99503  2      144
siesta:     -8.47850   8.38140  25.73309  1      145
siesta:     -8.20515   9.38413  24.21590  2      146
siesta:     -7.51983   9.10060  27.23150  2      147
siesta:     14.16965   3.62907  21.24008  1      148
siesta:     13.79788   5.41157  21.66425  2      149
siesta:     15.52735   3.42691  20.10695  2      150
siesta:     11.07854   1.24087   1.48454  1      151
siesta:     11.79800   1.00457   3.20259  2      152
siesta:     10.13563  -0.27384   1.06291  2      153
siesta:     -0.73484  24.96677  18.34047  1      154
siesta:     -1.97836  25.60010  17.16681  2      155
siesta:     -0.16445  23.24310  18.12579  2      156
siesta:     26.39159  30.16163   7.33848  1      157
siesta:     25.13643  31.27567   8.00975  2      158
siesta:     27.52895  31.01637   6.26353  2      159
siesta:     32.51818 -14.34107   9.38586  1      160
siesta:     31.27828 -13.43382   8.49543  2      161
siesta:     33.52655 -13.47105  10.46241  2      162
siesta:     29.89390  33.14992   5.24946  1      163
siesta:     31.69238  33.05031   5.08580  2      164
siesta:     29.56450  34.76021   5.99757  2      165
siesta:     -4.05154  28.59125  24.22017  1      166
siesta:     -5.62638  29.29746  23.50381  2      167
siesta:     -3.85083  29.77580  25.60251  2      168
siesta:     27.12959   6.39741  11.45223  1      169
siesta:     26.42748   5.50928  12.91876  2      170
siesta:     28.91982   5.77072  11.45501  2      171
siesta:     36.27075  10.18004  32.02469  1      172
siesta:     36.98171   8.48516  32.22424  2      173
siesta:     34.64404   9.59607  31.34804  2      174
siesta:      0.32889  -1.04701  11.93566  1      175
siesta:      0.91742  -1.36108  10.22818  2      176
siesta:      1.91396  -1.45510  12.86263  2      177
siesta:     14.41234  13.32594  18.67979  1      178
siesta:     12.78502  12.73166  18.03834  2      179
siesta:     15.33081  14.29386  17.34994  2      180
siesta:      5.98395 -11.81270  12.95182  1      181
siesta:      7.22742 -12.71904  13.95888  2      182
siesta:      7.03246 -10.73634  11.88519  2      183
siesta:     13.22934  38.53139   6.34177  1      184
siesta:     14.36227  38.75949   4.91521  2      185
siesta:     14.13309  37.40232   7.47381  2      186
siesta:     -0.40338  18.30882  23.91278  1      187
siesta:      0.51381  16.80041  24.44257  2      188
siesta:     -1.41462  19.07411  25.39086  2      189
siesta:     21.03193   6.71125 -14.88885  1      190
siesta:     20.54234   7.20332 -16.53986  2      191
siesta:     22.49712   5.50420 -14.97684  2      192
siesta:     20.25143   1.29850   5.05244  1      193
siesta:     20.21362   1.42538   6.90191  2      194
siesta:     19.28170   2.71308   4.30408  2      195
siesta:     27.64428   1.80652  27.52498  1      196
siesta:     29.38129   1.24347  27.79661  2      197
siesta:     27.22890   3.01204  28.78622  2      198
siesta:     24.55659  16.72117  21.71535  1      199
siesta:     24.89245  14.94919  22.05683  2      200
siesta:     26.08957  17.46024  22.37873  2      201
siesta:     30.10725  23.40920  -0.42924  1      202
siesta:     30.00166  25.04250   0.34300  2      203
siesta:     31.02296  23.24043  -1.92700  2      204
siesta:     25.85188  15.16525  -0.59623  1      205
siesta:     24.41672  14.48949   0.37032  2      206
siesta:     25.24480  16.76875  -1.39779  2      207
siesta:     24.14668 -11.54473  12.92042  1      208
siesta:     23.73557 -12.23120  14.63351  2      209
siesta:     24.66872 -12.99002  11.85263  2      210
siesta:      2.70563  10.01705  38.73051  1      211
siesta:      1.58714   9.64421  37.38072  2      212
siesta:      2.80541  11.82205  38.77313  2      213
siesta:     15.86357   6.61016   9.91018  1      214
siesta:     15.76862   8.12965  10.90341  2      215
siesta:     15.20209   5.14212  10.78285  2      216
siesta:     31.96812  -6.60413  -5.42179  1      217
siesta:     30.51986  -5.85322  -6.33033  2      218
siesta:     31.50157  -8.38840  -5.57115  2      219
siesta:     12.00200  23.40848  17.19122  1      220
siesta:     12.65242  23.70968  18.88486  2      221
siesta:     10.20544  23.08998  17.62649  2      222
siesta:     33.22691   7.01959  29.28904  1      223
siesta:     33.79016   5.80324  28.02451  2      224
siesta:     31.42216   6.91316  29.55046  2      225
siesta:      6.67166  15.30352   5.33478  1      226
siesta:      5.64692  15.15292   6.80455  2      227
siesta:      6.30998  13.83619   4.22769  2      228
siesta:     25.99829  50.04601  26.93433  1      229
siesta:     26.50316  51.26730  28.18388  2      230
siesta:     24.32664  50.76673  26.44410  2      231
siesta:     16.36462  -2.15280  34.40015  1      232
siesta:     18.02261  -1.40027  34.10633  2      233
siesta:     16.23861  -3.62999  33.27539  2      234
siesta:     30.69655  16.72237  15.06314  1      235
siesta:     30.06545  15.70831  13.49299  2      236
siesta:     32.28860  17.34010  14.57105  2      237
siesta:     17.67548  10.74731  -8.27625  1      238
siesta:     19.03376   9.82115  -9.00466  2      239
siesta:     16.43377  11.32522  -9.62412  2      240
siesta:     37.77759  14.58081  20.31317  1      241
siesta:     38.57384  14.74499  21.99797  2      242
siesta:     38.36063  13.01004  19.61690  2      243
siesta:     35.86185  38.34282  -6.55942  1      244
siesta:     35.99357  36.53707  -6.48578  2      245
siesta:     33.99233  38.67112  -6.69336  2      246
siesta:     29.00974  18.48337   6.79706  1      247
siesta:     30.20344  19.00917   5.57350  2      248
siesta:     29.17822  19.54945   8.25070  2      249
siesta:     -4.55008  33.33464  15.13675  1      250
siesta:     -4.43727  33.49416  17.01513  2      251
siesta:     -4.13327  31.48988  14.97696  2      252
siesta:     19.63116  17.09471   7.21329  1      253
siesta:     18.02194  17.96779   6.96435  2      254
siesta:     20.69675  18.39098   7.81286  2      255
siesta:     25.63302  27.81336  15.11630  1      256
siesta:     24.42164  26.84567  14.15025  2      257
siesta:     27.20860  27.55561  14.04102  2      258
siesta:     12.33963   0.80947  35.75045  1      259
siesta:     11.01027  -0.13837  36.40893  2      260
siesta:     13.76727  -0.42774  35.53113  2      261
siesta:     30.39757  10.67976  22.27453  1      262
siesta:     30.18283   9.04482  21.65066  2      263
siesta:     31.09117  11.81494  20.93722  2      264
siesta:     17.82191 -14.02100  15.83379  1      265
siesta:     18.40572 -14.47473  14.21285  2      266
siesta:     19.11876 -12.90595  16.55637  2      267
siesta:     23.66061  -1.57767   2.30955  1      268
siesta:     22.91931  -0.97104   3.91749  2      269
siesta:     23.84113  -0.08993   1.28737  2      270
siesta:      9.70344 -23.97401   3.89608  1      271
siesta:     10.23105 -25.35048   2.82165  2      272
siesta:     11.24970 -23.19459   4.33613  2      273
siesta:      2.98893  20.46904   3.11589  1      274
siesta:      2.38980  21.87793   2.04690  2      275
siesta:      4.73639  20.86864   3.59045  2      276
siesta:      2.15392   7.37915  16.76731  1      277
siesta:      2.45421   9.18436  16.96045  2      278
siesta:      2.74367   6.91343  15.04614  2      279
siesta:      3.98083  33.41648  24.51348  1      280
siesta:      2.48017  33.60437  23.48297  2      281
siesta:      3.89585  31.61158  24.69255  2      282
siesta:     25.96162  14.21487   9.28297  1      283
siesta:     24.17372  13.68677   9.40956  2      284
siesta:     26.85955  13.08384  10.47156  2      285
siesta:     17.34975   2.96268  16.08303  1      286
siesta:     18.57673   4.11623  15.50668  2      287
siesta:     16.09600   2.96266  14.81475  2      288
siesta:     18.80876  15.64612  28.55659  1      289
siesta:     17.74584  15.71990  27.12821  2      290
siesta:     19.40706  17.38491  28.47399  2      291
siesta:     -5.79052  39.55241  -8.57521  1      292
siesta:     -5.81642  40.47809 -10.08286  2      293
siesta:     -4.80080  40.20189  -7.17732  2      294
siesta:      9.83609  15.98188  15.69010  1      295
siesta:      9.04412  16.06525  17.45143  2      296
siesta:     11.14795  17.18807  15.82729  2      297
siesta:     20.69842  22.38384  25.87306  1      298
siesta:     20.08915  24.10004  26.23183  2      299
siesta:     19.69136  21.48805  24.55531  2      300
siesta:      3.07249 -16.61857  18.52333  1      301
siesta:      2.01805 -15.58722  17.49412  2      302
siesta:      4.42259 -15.65613  19.06356  2      303
siesta:     -2.86105  11.47137  25.32550  1      304
siesta:     -1.23049  11.40438  24.52522  2      305
siesta:     -2.97286  12.84268  26.49242  2      306
siesta:     16.23309  15.41967  24.10874  1      307
siesta:     16.60644  14.08414  22.85372  2      308
siesta:     14.34780  15.48211  23.92375  2      309
siesta:     14.24221  -2.76316  -1.93035  1      310
siesta:     13.23705  -1.32778  -1.58713  2      311
siesta:     15.88428  -1.99906  -2.00980  2      312
siesta:      7.01035  34.47415  17.97173  1      313
siesta:      5.32052  33.93661  18.03030  2      314
siesta:      7.86999  33.30266  19.00570  2      315
siesta:     21.99038   8.71344  30.50215  1      316
siesta:     22.88742   9.93841  31.61357  2      317
siesta:     20.26486   8.79164  30.98391  2      318
siesta:     35.02896   2.73861  35.00101  1      319
siesta:     36.44168   3.85379  34.89527  2      320
siesta:     35.24259   1.73530  36.48127  2      321
siesta:      6.34370  26.63166  24.08835  1      322
siesta:      7.40785  27.15311  22.71536  2      323
siesta:      5.92036  24.86668  23.99368  2      324
siesta:      2.78025  30.87175  16.52649  1      325
siesta:      1.76089  30.61307  18.08027  2      326
siesta:      1.60464  30.65562  15.07703  2      327
siesta:     12.31772  14.14278   5.75020  1      328
siesta:     10.58098  14.50149   5.40571  2      329
siesta:     12.11255  12.29885   5.96267  2      330
siesta:      2.80167 -14.88873  25.29231  1      331
siesta:      2.77836 -15.04791  27.15521  2      332
siesta:      3.06247 -16.71160  24.57802  2      333
siesta:      8.47793 -20.92303   9.40529  1      334
siesta:      9.85294 -20.90757   8.14811  2      335
siesta:      6.99595 -20.57345   8.44044  2      336
siesta:     29.60368  -0.05147  20.70818  1      337
siesta:     28.24997   0.36078  21.89181  2      338
siesta:     29.63531  -1.70819  20.13956  2      339
siesta:     -6.10841  13.07368   3.54530  1      340
siesta:     -4.63639  13.21485   4.64352  2      341
siesta:     -7.36463  13.92215   4.50046  2      342
siesta:     25.70203   6.72870   6.78370  1      343
siesta:     26.33115   8.34991   6.35309  2      344
siesta:     26.11694   6.70802   8.67611  2      345
siesta:      5.90993  19.04494  25.84390  1      346
siesta:      5.51023  17.18771  25.85747  2      347
siesta:      6.46260  19.36931  24.11938  2      348
siesta:     14.32575  32.52880  26.72406  1      349
siesta:     12.78648  33.23375  27.47133  2      350
siesta:     14.35561  33.01539  25.01223  2      351
siesta:      0.15965  19.93850  19.03980  1      352
siesta:      0.11865  18.46999  17.94693  2      353
siesta:     -0.21236  19.32890  20.72457  2      354
siesta:     17.60233  20.50411  22.53183  1      355
siesta:     17.44038  18.69727  22.37454  2      356
siesta:     18.45690  21.15652  21.04489  2      357
siesta:     37.33567  -8.06427   9.44596  1      358
siesta:     37.91066  -8.20941   7.71189  2      359
siesta:     38.48943  -7.01160  10.30973  2      360
siesta:     10.05854   9.72760  18.46390  1      361
siesta:      9.89132   8.73569  16.99142  2      362
siesta:      9.66896   8.49773  19.81309  2      363
siesta:     36.31604  -2.92757  12.45134  1      364
siesta:     34.74916  -3.91304  11.97741  2      365
siesta:     36.12645  -2.48122  14.22318  2      366
siesta:     21.20528  38.31953  38.63474  1      367
siesta:     19.54889  37.74864  37.95373  2      368
siesta:     22.50943  38.12843  37.40968  2      369
siesta:     20.88676  30.02210   9.95623  1      370
siesta:     21.75985  30.82779  11.36918  2      371
siesta:     19.87795  28.79228  10.78921  2      372
siesta:     15.21486  11.35352  41.51216  1      373
siesta:     15.56260  12.70276  40.34822  2      374
siesta:     13.44708  11.42660  41.97748  2      375
siesta:     19.96936  -2.42813  27.73520  1      376
siesta:     20.56072  -0.75196  27.24473  2      377
siesta:     20.76896  -2.77849  29.31687  2      378
siesta:     13.65016  26.47354 -17.00761  1      379
siesta:     12.13318  26.14771 -18.02778  2      380
siesta:     13.48119  25.90363 -15.28757  2      381
siesta:     12.80456  22.81029   6.68283  1      382
siesta:     13.10381  23.02423   4.92317  2      383
siesta:     13.38105  21.12804   7.29285  2      384

siesta: System type = bulk      

initatomlists: Number of atoms, orbitals, and projectors:    384  2944  4352

siesta: ******************** Simulation parameters ****************************
siesta:
siesta: The following are some of the parameters of the simulation.
siesta: A complete list of the parameters used, including default values,
siesta: can be found in file out.fdf
siesta:
redata: Non-Collinear-spin run           =     F
redata: SpinPolarized (Up/Down) run      =     F
redata: Number of spin components        =     1
redata: Long output                      =     F
redata: Number of Atomic Species         =        2
redata: Charge density info will appear in .RHO file
redata: Write Mulliken Pop.              =     Atomic and Orbital charges
redata: Mesh Cutoff                      =   199.9982  Ry
redata: Net charge of the system         =     0.0000 |e|
redata: Min. number of SCF Iter          =        0
redata: Max. number of SCF Iter          =       50
redata: Mix DM or H after convergence    =     F
redata: Recompute H after scf cycle      =     F
redata: Performing Pulay mixing using    =     3 iterations
redata: Mix DM in first SCF step ?       =     F
redata: Write Pulay info on disk?        =     F
redata: Discard 1st Pulay DM after  kick =     F
redata: New DM Mixing Weight             =     0.3000
redata: New DM Occupancy tolerance       = 0.000000000001
redata: No kicks to SCF
redata: DM Mixing Weight for Kicks       =     0.5000
redata: DM Tolerance for SCF             =     0.000100
redata: Require (free) Energy convergence in SCF =     F
redata: DM (free)Energy tolerance for SCF =     0.000010 eV
redata: Require Harris convergence for SCF =     F
redata: DM Harris energy tolerance for SCF =     0.000010 eV
redata: Using Saved Data (generic)   =     F
redata: Use continuation files for DM    =     T
redata: Neglect nonoverlap interactions  =     F
redata: Method of Calculation            =     Diagonalization
redata: Divide and Conquer               =     T
redata: Electronic Temperature           =     0.0004  Ry
redata: Fix the spin of the system       =     F
redata: Dynamics option                  =     Single-point calculation
redata: ***********************************************************************
Total number of electrons:  1024.000000
Total ionic charge:  1024.000000

* ProcessorY, Blocksize:    8  24


* Orbital distribution balance (max,min):    48    24

 Kpoints in:            1 . Kpoints trimmed:            1

siesta: k-grid: Number of k-points =     1
siesta: k-grid: Cutoff (effective) =     7.823 Ang
siesta: k-grid: Supercell and displacements
siesta: k-grid:    1   0   0      0.000
siesta: k-grid:    0   1   0      0.000
siesta: k-grid:    0   0   1      0.000

                     ====================================
                        Single-point calculation
                     ====================================

outcell: Unit cell vectors (Ang):
       15.646000    0.000000    0.000000
        0.000000   15.646000    0.000000
        0.000000    0.000000   15.646000

outcell: Cell vector modules (Ang)   :   15.646000   15.646000   15.646000
outcell: Cell angles (23,13,12) (deg):     90.0000     90.0000     90.0000
outcell: Cell volume (Ang**3)        :   3830.0988
New_DM. Step:     1
Initializing Density Matrix...

iodm: Reading Density Matrix from files
 Read DM has different structure. Fixing...
Note: For starting DM, Qtot, Tr[D*S] =       1024.00000000       1022.54720116
New grid distribution:   1
           1       1:   72    1:    9    1:    9
           2       1:   72    1:    9   10:   18
           3       1:   72    1:    9   19:   27
           4       1:   72    1:    9   28:   36
           5       1:   72    1:    9   37:   45
           6       1:   72    1:    9   46:   54
           7       1:   72    1:    9   55:   63
           8       1:   72    1:    9   64:   72
           9       1:   72   10:   18    1:    9
          10       1:   72   10:   18   10:   18
          11       1:   72   10:   18   19:   27
          12       1:   72   10:   18   28:   36
          13       1:   72   10:   18   37:   45
          14       1:   72   10:   18   46:   54
          15       1:   72   10:   18   55:   63
          16       1:   72   10:   18   64:   72
          17       1:   72   19:   27    1:    9
          18       1:   72   19:   27   10:   18
          19       1:   72   19:   27   19:   27
          20       1:   72   19:   27   28:   36
          21       1:   72   19:   27   37:   45
          22       1:   72   19:   27   46:   54
          23       1:   72   19:   27   55:   63
          24       1:   72   19:   27   64:   72
          25       1:   72   28:   36    1:    9
          26       1:   72   28:   36   10:   18
          27       1:   72   28:   36   19:   27
          28       1:   72   28:   36   28:   36
          29       1:   72   28:   36   37:   45
          30       1:   72   28:   36   46:   54
          31       1:   72   28:   36   55:   63
          32       1:   72   28:   36   64:   72
          33       1:   72   37:   45    1:    9
          34       1:   72   37:   45   10:   18
          35       1:   72   37:   45   19:   27
          36       1:   72   37:   45   28:   36
          37       1:   72   37:   45   37:   45
          38       1:   72   37:   45   46:   54
          39       1:   72   37:   45   55:   63
          40       1:   72   37:   45   64:   72
          41       1:   72   46:   54    1:    9
          42       1:   72   46:   54   10:   18
          43       1:   72   46:   54   19:   27
          44       1:   72   46:   54   28:   36
          45       1:   72   46:   54   37:   45
          46       1:   72   46:   54   46:   54
          47       1:   72   46:   54   55:   63
          48       1:   72   46:   54   64:   72
          49       1:   72   55:   63    1:    9
          50       1:   72   55:   63   10:   18
          51       1:   72   55:   63   19:   27
          52       1:   72   55:   63   28:   36
          53       1:   72   55:   63   37:   45
          54       1:   72   55:   63   46:   54
          55       1:   72   55:   63   55:   63
          56       1:   72   55:   63   64:   72
          57       1:   72   64:   72    1:    9
          58       1:   72   64:   72   10:   18
          59       1:   72   64:   72   19:   27
          60       1:   72   64:   72   28:   36
          61       1:   72   64:   72   37:   45
          62       1:   72   64:   72   46:   54
          63       1:   72   64:   72   55:   63
          64       1:   72   64:   72   64:   72

InitMesh: MESH =   144 x   144 x   144 =     2985984
InitMesh: (bp) =    72 x    72 x    72 =      373248
InitMesh: Mesh cutoff (required, used) =   199.998   234.110 Ry
ExtMesh (bp) on 0 =   136 x    73 x    73 =      724744
New grid distribution:   2
           1      16:   35   35:   56   21:   35
           2      37:   58    1:   16    1:   17
           3      37:   56    1:   18   18:   35
           4      19:   36    1:   16   19:   35
           5       1:   20   17:   34   19:   35
           6      16:   36    1:   17   36:   52
           7      17:   36    1:   19   53:   72
           8      37:   52    1:   18   56:   72
           9       1:   19   36:   53   36:   54
          10       1:   18   16:   34    1:   18
          11       1:   20    1:   15    1:   18
          12       1:   18    1:   16   19:   35
          13      37:   57    1:   17   36:   55
          14      57:   72    1:   18   18:   35
          15      58:   72   17:   34    1:   17
          16      53:   72    1:   18   56:   72
          17       1:   19   54:   72   55:   72
          18      37:   57   17:   34    1:   17
          19      21:   36   17:   34   19:   35
          20      20:   36   18:   35   36:   52
          21      37:   55   18:   35   36:   55
          22       1:   19   18:   35   36:   52
          23      17:   36   20:   35   53:   72
          24      56:   72   19:   35   56:   72
          25      56:   72   35:   55    1:   19
          26      19:   36   16:   34    1:   18
          27      55:   72   19:   34   18:   35
          28       1:   15    1:   17   36:   52
          29      55:   72   36:   54   36:   54
          30      56:   72   18:   35   36:   55
          31      21:   36    1:   15    1:   18
          32      37:   55   19:   35   56:   72
          33      36:   55   35:   55    1:   19
          34       1:   16    1:   19   53:   72
          35      37:   54   19:   34   18:   35
          36       1:   15   35:   56   21:   35
          37      20:   37   36:   53   36:   54
          38      56:   72   35:   53   20:   35
          39      16:   37   36:   53   55:   72
          40       1:   15   36:   53   55:   72
          41      16:   35   35:   53    1:   20
          42       1:   15   35:   53    1:   20
          43      36:   55   35:   53   20:   35
          44       1:   16   57:   72   21:   35
          45      38:   54   36:   54   36:   54
          46       1:   16   20:   35   53:   72
          47      38:   58   36:   53   55:   72
          48      59:   72   36:   53   55:   72
          49       1:   21   54:   72    1:   20
          50      22:   35   54:   72    1:   20
          51      58:   72   54:   72   20:   35
          52       1:   17   54:   72   36:   54
          53      18:   37   54:   72   36:   54
          54      59:   72   55:   72   36:   54
          55      20:   37   54:   72   55:   72
          56      38:   54   54:   72   55:   72
          57      54:   72   56:   72    1:   19
          58      36:   53   56:   72    1:   19
          59      36:   57   54:   72   20:   35
          60      17:   35   57:   72   21:   35
          61      38:   58   55:   72   36:   54
          62      58:   72    1:   17   36:   55
          63      55:   72   54:   72   55:   72
          64      59:   72    1:   16    1:   17
New grid distribution:   3
           1      37:   54   19:   36   55:   72
           2      37:   54   55:   72   55:   72
           3      37:   54   19:   36    1:   18
           4      37:   54   55:   72    1:   18
           5      37:   54    1:   18   37:   54
           6      55:   72   55:   72   55:   72
           7      55:   72   19:   36    1:   18
           8      55:   72   55:   72    1:   18
           9      55:   72   19:   36   55:   72
          10      37:   54   37:   54   55:   72
          11      37:   54    1:   18    1:   18
          12      37:   54   37:   54    1:   18
          13      55:   72    1:   18   37:   54
          14      55:   72   37:   54   55:   72
          15      55:   72    1:   18    1:   18
          16      55:   72   37:   54    1:   18
          17      37:   54    1:   18   55:   72
          18       1:   18   55:   72   37:   54
          19      37:   54   19:   36   19:   36
          20       1:   18   55:   72    1:   18
          21      37:   54   19:   36   37:   54
          22      19:   36   55:   72   37:   54
          23      37:   54    1:   18   19:   36
          24      19:   36   55:   72    1:   18
          25      55:   72    1:   18   55:   72
          26       1:   18   37:   54   37:   54
          27      55:   72   19:   36   19:   36
          28       1:   18   37:   54    1:   18
          29      55:   72   19:   36   37:   54
          30      19:   36   37:   54   37:   54
          31      55:   72    1:   18   19:   36
          32      19:   36   37:   54    1:   18
          33       1:   18   19:   36   37:   54
          34       1:   18   55:   72   55:   72
          35       1:   18   19:   36    1:   18
          36      37:   54   37:   54   19:   36
          37      19:   36   19:   36   37:   54
          38      37:   54   37:   54   37:   54
          39      19:   36   19:   36    1:   18
          40       1:   18   55:   72   19:   36
          41       1:   18    1:   18   37:   54
          42      19:   36   55:   72   55:   72
          43       1:   18    1:   18    1:   18
          44      55:   72   37:   54   19:   36
          45      19:   36    1:   18   37:   54
          46      55:   72   37:   54   37:   54
          47      19:   36    1:   18    1:   18
          48      19:   36   55:   72   19:   36
          49       1:   18   19:   36   55:   72
          50       1:   18   37:   54   55:   72
          51       1:   18   19:   36   19:   36
          52      37:   54   55:   72   19:   36
          53      19:   36   19:   36   55:   72
          54      37:   54   55:   72   37:   54
          55      19:   36   19:   36   19:   36
          56       1:   18   37:   54   19:   36
          57       1:   18    1:   18   55:   72
          58      19:   36   37:   54   55:   72
          59       1:   18    1:   18   19:   36
          60      55:   72   55:   72   19:   36
          61      19:   36    1:   18   55:   72
          62      55:   72   55:   72   37:   54
          63      19:   36    1:   18   19:   36
          64      19:   36   37:   54   19:   36
Setting up quadratic distribution...
ExtMesh (bp) on 0 =    84 x    86 x    79 =      570696
PhiOnMesh: Number of (b)points on node 0 =                 6600
PhiOnMesh: nlist on node 0 =               219549

stepf: Fermi-Dirac step function

siesta: Program's energy decomposition (eV):
siesta: Ebs     =    -14888.165876
siesta: Eions   =    104429.373288
siesta: Ena     =     25182.179746
siesta: Ekin    =     44855.629424
siesta: Enl     =     -7714.849626
siesta: DEna    =     -3315.132403
siesta: DUscf   =       339.183277
siesta: DUext   =         0.000000
siesta: Exc     =    -15070.622004
siesta: eta*DQ  =         0.000000
siesta: Emadel  =         0.000000
siesta: Emeta   =         0.000000
siesta: Emolmec =         0.000000
siesta: Ekinion =         0.000000
siesta: Eharris =    -60156.891391
siesta: Etot    =    -60152.984873
siesta: FreeEng =    -60152.984873

   scf: iscf   Eharris(eV)      E_KS(eV)   FreeEng(eV)    dDmax  Ef(eV)
   scf:    1   -60156.8914   -60152.9849   -60152.9849  0.28411 -0.1139
timer: Routine,Calls,Time,% =    IterSCF     1      13.565  68.46
   scf:    2   -60156.2132   -60152.4007   -60152.4007  0.16379 -0.0399
   scf:    3   -60154.2595   -60153.5412   -60153.5412  0.08763  0.3594
   scf:    4   -60154.2367   -60153.8532   -60153.8532  0.01960  0.3748
   scf:    5   -60154.2304   -60154.0287   -60154.0287  0.00724  0.3735
   scf:    6   -60154.2281   -60154.1591   -60154.1591  0.00286  0.3616
   scf:    7   -60154.2280   -60154.1948   -60154.1948  0.00120  0.3610
   scf:    8   -60154.2279   -60154.2134   -60154.2134  0.00075  0.3614
   scf:    9   -60154.2279   -60154.2219   -60154.2219  0.00027  0.3621
   scf:   10   -60154.2279   -60154.2248   -60154.2248  0.00016  0.3621
   scf:   11   -60154.2279   -60154.2268   -60154.2268  0.00005  0.3620

SCF Convergence by dMax criterion
max |DM_out - DM_in|:     0.00005380
SCF cycle converged after   11 iterations

Using DM_out to compute the final energy and forces

siesta: E_KS(eV) =           -60154.2279

siesta: E_KS - E_eggbox =    -60154.2279

siesta: Atomic forces (eV/Ang):
----------------------------------------
   Tot   -0.037802    0.049192    0.002779
----------------------------------------
   Max    4.520024
   Res    0.963199    sqrt( Sum f_i^2 / 3N )
----------------------------------------
   Max    4.520024    constrained

Stress-tensor-Voigt (kbar):      -26.27      -24.10      -23.06       -3.28       -2.77        0.98
(Free)E + p*V (eV/cell)   -60095.7158
Target enthalpy (eV/cell)   -60154.2279

mulliken: Atomic and Orbital Populations:

Species: O.vdw.1             
Atom  Qatom  Qorb
               2s      2s      2py     2pz     2px     2py     2pz     2px     
               3dxy    3dyz    3dz2    3dxz    3dx2-y2 
   1  6.646   1.561   0.178   1.245   1.416   1.582   0.275   0.217   0.151
              0.007   0.002   0.006   0.005   0.002
   4  6.619   1.547   0.184   1.021   1.685   1.487   0.373   0.113   0.187
              0.010   0.002   0.003   0.004   0.002
   7  6.649   1.571   0.165   1.549   1.356   1.425   0.151   0.225   0.188
              0.005   0.003   0.000   0.008   0.002
  10  6.580   1.530   0.205   1.598   1.535   1.009   0.149   0.172   0.359
              0.007   0.005   0.002   0.007   0.001
  13  6.614   1.537   0.191   1.534   1.469   1.239   0.156   0.189   0.280
              0.005   0.003   0.003   0.008   0.002
  16  6.617   1.523   0.201   1.679   0.938   1.621   0.116   0.386   0.131
              0.004   0.005   0.003   0.006   0.001
  19  6.628   1.542   0.193   1.478   1.397   1.411   0.173   0.212   0.203
              0.001   0.005   0.000   0.006   0.007
  22  6.653   1.542   0.178   1.435   1.236   1.703   0.176   0.265   0.102
              0.001   0.004   0.003   0.005   0.004
  25  6.625   1.556   0.185   1.599   1.370   1.313   0.141   0.200   0.240
              0.003   0.004   0.007   0.001   0.005
  28  6.665   1.552   0.174   1.447   1.343   1.506   0.199   0.247   0.177
              0.007   0.003   0.006   0.003   0.001
  31  6.615   1.557   0.180   1.045   1.606   1.566   0.350   0.136   0.155
              0.005   0.007   0.001   0.005   0.002
  34  6.695   1.624   0.143   1.425   1.658   1.324   0.177   0.109   0.214
              0.010   0.005   0.002   0.002   0.001
  37  6.641   1.575   0.171   1.085   1.709   1.434   0.332   0.105   0.209
              0.002   0.001   0.003   0.006   0.010
  40  6.645   1.570   0.171   1.710   0.992   1.551   0.094   0.376   0.160
              0.004   0.004   0.002   0.010   0.002
  43  6.593   1.555   0.191   1.318   1.803   1.108   0.224   0.063   0.310
              0.005   0.002   0.004   0.001   0.008
  46  6.637   1.580   0.172   1.805   1.318   1.156   0.065   0.220   0.301
              0.001   0.003   0.008   0.001   0.006
  49  6.660   1.605   0.156   1.249   1.779   1.294   0.236   0.072   0.249
              0.001   0.001   0.003   0.004   0.012
  52  6.626   1.552   0.183   1.070   1.643   1.499   0.342   0.128   0.187
              0.010   0.004   0.003   0.004   0.001
  55  6.626   1.583   0.162   1.398   1.839   0.993   0.203   0.052   0.377
              0.013   0.001   0.004   0.000   0.001
  58  6.637   1.566   0.175   1.461   1.684   1.137   0.191   0.096   0.306
              0.004   0.005   0.003   0.001   0.008
  61  6.645   1.590   0.158   1.263   1.295   1.789   0.248   0.234   0.049
              0.002   0.001   0.010   0.002   0.005
  64  6.572   1.502   0.215   1.243   1.806   1.094   0.279   0.083   0.330
              0.002   0.002   0.004   0.001   0.013
  67  6.655   1.582   0.164   1.373   1.231   1.705   0.214   0.271   0.095
              0.003   0.002   0.005   0.006   0.004
  70  6.591   1.520   0.198   1.156   1.648   1.364   0.312   0.132   0.240
              0.003   0.001   0.002   0.005   0.009
  73  6.662   1.555   0.175   1.604   1.374   1.365   0.122   0.220   0.229
              0.006   0.006   0.003   0.002   0.002
  76  6.646   1.561   0.174   1.202   1.335   1.746   0.297   0.227   0.084
              0.003   0.003   0.010   0.002   0.004
  79  6.636   1.590   0.162   1.465   1.644   1.134   0.185   0.130   0.305
              0.011   0.004   0.002   0.002   0.001
  82  6.683   1.591   0.154   1.051   1.487   1.874   0.334   0.153   0.020
              0.000   0.010   0.004   0.002   0.004
  85  6.643   1.600   0.159   1.393   1.765   1.190   0.189   0.067   0.262
              0.008   0.002   0.003   0.001   0.004
  88  6.653   1.587   0.155   1.084   1.739   1.485   0.330   0.078   0.176
              0.007   0.004   0.002   0.003   0.004
  91  6.647   1.560   0.172   1.200   1.346   1.775   0.282   0.221   0.073
              0.002   0.001   0.008   0.002   0.005
  94  6.689   1.623   0.145   1.224   1.428   1.767   0.243   0.179   0.060
              0.001   0.003   0.006   0.004   0.005
  97  6.619   1.525   0.201   1.103   1.529   1.642   0.327   0.163   0.112
              0.007   0.003   0.003   0.004   0.002
 100  6.646   1.610   0.154   1.660   1.263   1.395   0.108   0.248   0.189
              0.004   0.002   0.007   0.003   0.003
 103  6.660   1.599   0.157   1.282   1.662   1.376   0.227   0.117   0.219
              0.001   0.001   0.002   0.005   0.011
 106  6.625   1.581   0.161   1.434   1.493   1.295   0.197   0.182   0.262
              0.009   0.005   0.003   0.003   0.001
 109  6.653   1.568   0.161   1.345   1.520   1.485   0.231   0.160   0.166
              0.007   0.003   0.001   0.005   0.001
 112  6.581   1.497   0.217   1.435   1.246   1.539   0.204   0.269   0.156
              0.003   0.008   0.001   0.004   0.004
 115  6.599   1.517   0.203   1.336   1.331   1.579   0.233   0.235   0.146
              0.002   0.003   0.003   0.005   0.006
 118  6.645   1.552   0.176   1.434   1.637   1.306   0.177   0.106   0.239
              0.001   0.003   0.001   0.004   0.008
 121  6.662   1.551   0.177   1.726   1.131   1.468   0.091   0.301   0.198
              0.005   0.001   0.009   0.003   0.002
 124  6.591   1.540   0.191   1.428   1.521   1.245   0.208   0.167   0.270
              0.001   0.008   0.003   0.004   0.006
 127  6.676   1.566   0.170   1.685   1.232   1.494   0.093   0.259   0.159
              0.004   0.002   0.003   0.007   0.002
 130  6.645   1.565   0.173   1.524   1.307   1.465   0.159   0.246   0.184
              0.006   0.009   0.002   0.003   0.002
 133  6.592   1.512   0.211   1.768   1.229   1.202   0.082   0.273   0.293
              0.001   0.002   0.010   0.001   0.007
 136  6.682   1.578   0.156   1.453   1.636   1.304   0.177   0.122   0.239
              0.005   0.004   0.001   0.003   0.003
 139  6.655   1.554   0.176   1.180   1.766   1.298   0.309   0.093   0.259
              0.002   0.002   0.003   0.002   0.011
 142  6.630   1.516   0.192   1.434   1.346   1.530   0.193   0.241   0.162
              0.000   0.004   0.002   0.005   0.006
 145  6.655   1.586   0.165   1.610   1.055   1.691   0.110   0.321   0.098
              0.003   0.008   0.002   0.004   0.002
 148  6.681   1.574   0.164   1.301   1.578   1.467   0.245   0.151   0.184
              0.001   0.001   0.002   0.006   0.008
 151  6.702   1.601   0.141   1.479   1.361   1.640   0.147   0.211   0.105
              0.005   0.002   0.007   0.002   0.002
 154  6.633   1.533   0.186   1.222   1.573   1.501   0.289   0.140   0.171
              0.002   0.002   0.002   0.006   0.006
 157  6.646   1.553   0.174   1.469   1.548   1.280   0.180   0.160   0.263
              0.009   0.005   0.001   0.003   0.001
 160  6.630   1.497   0.201   1.504   1.423   1.309   0.182   0.226   0.270
              0.007   0.006   0.001   0.004   0.001
 163  6.646   1.589   0.158   1.332   1.731   1.189   0.227   0.102   0.299
              0.001   0.004   0.003   0.001   0.011
 166  6.636   1.581   0.162   1.551   1.377   1.392   0.143   0.206   0.202
              0.005   0.008   0.002   0.002   0.004
 169  6.618   1.571   0.165   1.692   1.417   1.183   0.104   0.191   0.276
              0.004   0.005   0.005   0.002   0.003
 172  6.651   1.562   0.180   1.332   1.783   1.219   0.221   0.064   0.268
              0.006   0.002   0.003   0.002   0.007
 175  6.620   1.579   0.169   1.816   1.121   1.329   0.067   0.307   0.212
              0.003   0.001   0.004   0.008   0.005
 178  6.621   1.568   0.173   1.606   1.502   1.177   0.131   0.164   0.282
              0.002   0.005   0.003   0.007   0.003
 181  6.670   1.598   0.150   1.481   1.446   1.417   0.176   0.188   0.195
              0.007   0.003   0.000   0.007   0.002
 184  6.640   1.560   0.174   1.602   1.202   1.495   0.137   0.282   0.170
              0.004   0.003   0.001   0.009   0.002
 187  6.656   1.591   0.153   1.370   1.473   1.552   0.205   0.158   0.138
              0.003   0.004   0.003   0.004   0.001
 190  6.596   1.501   0.213   1.528   1.313   1.411   0.156   0.246   0.208
              0.005   0.002   0.009   0.002   0.001
 193  6.653   1.576   0.166   1.509   1.133   1.706   0.151   0.303   0.092
              0.005   0.002   0.008   0.001   0.001
 196  6.625   1.558   0.176   1.473   1.540   1.234   0.197   0.164   0.265
              0.002   0.007   0.003   0.002   0.006
 199  6.616   1.569   0.175   1.062   1.747   1.414   0.322   0.098   0.208
              0.004   0.002   0.003   0.004   0.008
 202  6.659   1.534   0.182   1.347   1.269   1.719   0.236   0.272   0.081
              0.001   0.002   0.004   0.005   0.006
 205  6.649   1.596   0.161   1.297   1.561   1.447   0.237   0.149   0.181
              0.005   0.003   0.001   0.005   0.005
 208  6.659   1.601   0.158   1.426   1.115   1.794   0.180   0.300   0.066
              0.002   0.009   0.003   0.001   0.003
 211  6.627   1.566   0.168   1.141   1.479   1.602   0.322   0.191   0.138
              0.001   0.001   0.004   0.007   0.008
 214  6.652   1.555   0.171   1.010   1.527   1.802   0.367   0.151   0.052
              0.002   0.010   0.001   0.002   0.003
 217  6.617   1.568   0.182   1.105   1.688   1.465   0.313   0.103   0.172
              0.005   0.001   0.003   0.005   0.007
 220  6.620   1.590   0.169   1.824   1.262   1.139   0.071   0.256   0.287
[...]
siesta:      8   -0.737692   -0.756401   -0.912646
siesta:      9   -0.522342    0.232395    0.746718
siesta:     10    0.901433    0.688616    0.648493
siesta:     11   -1.555556   -0.833916   -0.786321
siesta:     12    0.791958   -0.037677    0.035571
siesta:     13    1.958898   -2.203561   -1.061409
siesta:     14   -0.213480    0.199349   -0.070523
siesta:     15   -1.929097    1.819334    0.992503
siesta:     16    1.171598    0.907149    1.114713
siesta:     17   -0.647479   -0.607837   -0.746939
siesta:     18   -0.436935   -0.455742   -0.392405
siesta:     19    0.877390    0.634959   -0.779820
siesta:     20   -0.352390   -0.493308    0.436407
siesta:     21   -0.761781    0.120894    0.177544
siesta:     22    1.389436   -0.458894   -0.266319
siesta:     23   -0.552598    0.068791    0.469724
siesta:     24   -0.723586    0.549618    0.180507
siesta:     25   -0.727648    1.024456   -1.306406
siesta:     26    1.081128   -0.812819   -0.049245
siesta:     27   -0.154922   -0.254022    1.170175
siesta:     28   -2.236075    0.245239   -2.293191
siesta:     29    0.546593    0.825905    2.192962
siesta:     30    1.845939   -1.388103    0.153427
siesta:     31    0.512022    2.501619    0.345026
siesta:     32   -0.608126   -2.455907   -0.701566
siesta:     33    0.126212    0.119944    0.290634
siesta:     34    0.322958    0.938508   -0.169230
siesta:     35   -0.118306   -0.648882   -0.083845
siesta:     36   -0.344629   -0.351205    0.332123
siesta:     37   -0.972349   -1.590305   -0.413945
siesta:     38    0.113115    2.228134    0.000501
siesta:     39    1.114067   -0.779786    0.535848
siesta:     40    1.499829    0.985741   -2.933004
siesta:     41   -0.046518   -0.240020   -0.345199
siesta:     42   -1.489367   -0.840754    3.336308
siesta:     43   -0.047661    1.354358   -0.070670
siesta:     44    0.118945   -0.898692    0.113178
siesta:     45   -0.115752   -0.550233    0.278899
siesta:     46    0.856756   -0.360209    0.073777
siesta:     47   -0.443338    0.204000    0.208279
siesta:     48    0.007560    0.048648   -0.093918
siesta:     49    0.830460   -1.014142   -0.532309
siesta:     50   -0.777198   -0.141654    0.418251
siesta:     51   -0.231519    1.190461   -0.087907
siesta:     52   -2.608082    2.784515   -0.162094
siesta:     53   -0.263148    0.079037   -0.106497
siesta:     54    2.461947   -2.846775    0.538365
siesta:     55    2.798526    0.755281   -0.390170
siesta:     56   -2.435127   -1.203597    0.505029
siesta:     57   -0.083136    0.104900   -0.121777
siesta:     58    1.419143   -0.042806    0.657560
siesta:     59   -1.780128    0.017127   -0.401471
siesta:     60    0.362494    0.034321   -0.314341
siesta:     61   -0.157700    0.048969   -0.419792
siesta:     62   -0.168523   -0.239635    0.143603
siesta:     63   -0.002751   -0.301261    0.578964
siesta:     64    2.059015   -0.553880   -0.550878
siesta:     65    0.290065    0.870897   -0.296894
siesta:     66   -2.392749    0.001943    0.434538
siesta:     67    0.729120    0.109665   -1.083709
siesta:     68   -0.423397   -0.099666   -0.344924
siesta:     69   -0.276314    0.290392    1.162533
siesta:     70    1.952537    0.908511   -0.058513
siesta:     71   -0.053855   -1.877957   -0.418948
siesta:     72   -1.962330    0.937472    0.797204
siesta:     73   -1.433593   -0.885338   -0.110317
siesta:     74    0.211970   -0.073041   -0.090224
siesta:     75    1.108356    0.741615   -0.136775
siesta:     76   -0.280136   -2.141811   -1.339863
siesta:     77    0.954028   -0.960180    0.844829
siesta:     78   -0.772022    3.047709   -0.127229
siesta:     79   -0.619490   -0.556632   -0.174326
siesta:     80   -0.017440    0.178127   -0.504923
siesta:     81    0.741378    0.800148    0.236063
siesta:     82    0.239651    1.451437    0.350537
siesta:     83   -0.299395   -0.356603    0.413648
siesta:     84   -0.082246   -1.363258   -0.556131
siesta:     85    0.468767    1.703106    0.092689
siesta:     86    0.533744   -0.492262   -0.215173
siesta:     87   -0.786474   -0.849470    0.362025
siesta:     88   -1.850709    1.332012    1.011491
siesta:     89    1.712512   -1.721552   -0.417550
siesta:     90   -0.301510    0.349354   -0.074980
siesta:     91   -0.379000    0.804943    0.965396
siesta:     92   -0.057999   -0.400038   -0.377417
siesta:     93   -0.041227   -0.700429   -0.528411
siesta:     94   -0.673117    0.597932   -0.752094
siesta:     95    0.667946   -0.005336    0.834436
siesta:     96    0.005813   -0.889547    0.034892
siesta:     97    1.080878   -0.950126   -0.517860
siesta:     98   -0.645202    0.992275    0.283049
siesta:     99   -0.183242   -0.126649    0.208790
siesta:    100   -0.819875   -0.328078    0.082636
siesta:    101    1.070143    0.126422   -0.347278
siesta:    102   -0.050979    0.222377    0.179237
siesta:    103    0.137504   -0.550866    0.295851
siesta:    104    0.543605    0.270700    0.096652
siesta:    105   -0.911839    0.540291   -0.473443
siesta:    106   -0.953900   -1.149371   -1.089202
siesta:    107    1.570053    0.964424    1.625087
siesta:    108   -0.973751    0.162275   -0.011059
siesta:    109    1.648533   -0.068609   -0.382293
siesta:    110   -0.770265   -0.310290    0.357978
siesta:    111   -0.689873    0.187860    0.085527
siesta:    112   -0.693696   -1.677130   -0.804576
siesta:    113    0.388038    0.264811    0.223821
siesta:    114    0.288604    1.333025    0.863157
siesta:    115    0.518148    0.856141    0.126169
siesta:    116   -0.236076   -0.444330   -0.054261
siesta:    117   -0.219503   -0.316238   -0.495367
siesta:    118    1.292321    0.320435   -0.267133
siesta:    119   -1.571635   -0.247583    0.647042
siesta:    120   -0.106408    0.341786    0.209293
siesta:    121    2.391421   -0.785159   -0.023594
siesta:    122   -1.909486    0.683186    0.617948
siesta:    123   -0.423031    0.097741   -0.681668
siesta:    124   -1.016024   -0.128310   -1.545026
siesta:    125    1.130795    0.949190    0.399424
siesta:    126   -0.474823   -1.345338    0.602407
siesta:    127   -1.147220    0.854277   -1.484985
siesta:    128    1.179027   -0.260418    0.695312
siesta:    129   -0.405652   -0.547629    0.786887
siesta:    130   -0.886075   -1.939717   -0.019163
siesta:    131    1.088141    0.599156   -0.904992
siesta:    132   -0.445330    1.339421    1.206972
siesta:    133    1.496043    0.218259    0.587472
siesta:    134   -1.993707   -0.291929    0.583488
siesta:    135    0.640055    0.069407   -0.892858
siesta:    136    0.389222   -2.269302    0.692432
siesta:    137   -0.031772    0.129194   -0.106410
siesta:    138   -0.391587    1.764699   -0.531075
siesta:    139    3.896628   -0.056109   -0.173202
siesta:    140   -3.283442   -0.704666    0.450693
siesta:    141   -0.645914    0.914028   -0.083289
siesta:    142    1.808767   -1.007643    1.893890
siesta:    143   -1.336520    0.418947   -1.286718
siesta:    144   -1.219178    0.686685   -0.270379
siesta:    145    0.406417    0.012352    0.570164
siesta:    146    0.318548    0.211388   -0.037968
siesta:    147   -0.574081   -0.395999   -0.981415
siesta:    148   -2.027481   -0.460337    1.534906
siesta:    149    0.419719    0.142732   -0.192017
siesta:    150    1.358743    0.444661   -1.380397
siesta:    151    0.746331    1.115572   -0.557143
siesta:    152   -0.130108   -0.297088    0.448565
siesta:    153   -0.629938   -0.352752   -0.306921
siesta:    154    0.753232    1.258506    1.244972
siesta:    155   -0.550702   -0.203634   -0.992441
siesta:    156   -0.336693   -1.142821   -0.496568
siesta:    157   -1.234315   -2.469277    1.271977
siesta:    158   -0.253328    0.777892   -0.084122
siesta:    159    1.343126    1.379154   -0.721388
siesta:    160   -0.755427   -4.520024   -1.955360
siesta:    161   -1.638418    1.779371   -0.948613
siesta:    162    2.393901    2.844227    2.920546
siesta:    163   -1.412635   -0.522987   -0.757051
siesta:    164    1.858210   -0.272189    0.012477
siesta:    165   -0.348041    0.823715    0.501069
siesta:    166   -0.638148   -0.212625   -0.979068
siesta:    167   -0.194110   -0.372019   -0.344373
siesta:    168    0.886350    0.209751    0.940960
siesta:    169    1.145622    0.186063    0.003492
siesta:    170   -0.371919   -0.239103    0.296308
siesta:    171   -0.196909    0.252417   -0.291067
siesta:    172   -0.147596    0.114838   -0.048653
siesta:    173    0.828435   -0.250715    0.412299
siesta:    174   -0.380531    0.272071   -0.278516
siesta:    175    0.537590    0.318741    2.554067
siesta:    176    0.038355   -0.216402   -1.811138
siesta:    177   -0.783188   -0.147587   -0.288569
siesta:    178   -0.062588    0.197967    0.073515
siesta:    179    0.160301   -0.156958   -0.005859
siesta:    180   -0.161281   -0.383082    0.185963
siesta:    181   -0.947148   -0.022009   -0.513551
siesta:    182    0.659100   -0.309145    0.490165
siesta:    183    0.078811    0.508208   -0.421320
siesta:    184   -1.086760    0.721747   -0.913201
siesta:    185    0.342817   -0.017282   -0.293037
siesta:    186    0.775374   -0.669524    1.085636
siesta:    187   -0.849971    1.069681    0.259941
siesta:    188    0.465187   -0.526778    0.385771
siesta:    189    0.435750   -0.380407   -0.965612
siesta:    190    0.320453   -0.510212    1.708268
siesta:    191   -0.132178    0.200491   -1.769515
siesta:    192   -0.425709    0.285611   -0.295590
siesta:    193   -0.016711    0.017520   -0.560831
siesta:    194   -0.118402    0.245258    0.101836
siesta:    195    0.061791   -0.147510    0.369917
siesta:    196    0.396641   -0.807608   -0.925797
siesta:    197    0.130548    0.175769    0.139714
siesta:    198   -0.326249    1.147811    1.218937
siesta:    199   -0.540592   -0.669858    0.064766
siesta:    200   -0.336653   -0.325286   -0.001857
siesta:    201    0.800125    0.775414    0.295143
siesta:    202   -1.501296   -2.088942    2.239041
siesta:    203    0.015177    1.587109    0.177999
siesta:    204    1.355009    0.515806   -2.356810
siesta:    205   -0.078952    0.756590   -0.739637
siesta:    206    0.031760    0.151358    0.232484
siesta:    207    0.275034   -0.564201    0.454528
siesta:    208   -0.147125   -0.325271    0.743685
siesta:    209    0.243065    0.478405   -0.709689
siesta:    210    0.017333    0.178907    0.084587
siesta:    211    0.966211   -1.048889    0.770005
siesta:    212   -0.846473   -0.138572   -1.308268
siesta:    213    0.058343    1.619575    0.192289
siesta:    214    0.899625   -0.141242   -1.775360
siesta:    215   -0.355855    1.106417    1.018226
siesta:    216   -0.352021   -0.712205    0.426428
siesta:    217   -0.417962    0.381093   -0.443497
siesta:    218    0.364200    0.262516    0.240491
siesta:    219    0.095019   -0.644193    0.199985
siesta:    220   -0.633682   -0.053403    0.367957
siesta:    221    0.308122    0.268017    0.166905
siesta:    222    0.433286   -0.098493   -0.632724
siesta:    223    0.842562    0.530746    0.418893
siesta:    224   -0.570574   -0.206304   -0.229181
siesta:    225   -0.672653   -0.277735   -0.327542
siesta:    226    1.394800   -0.071466   -1.786572
siesta:    227   -1.138745   -0.304586    1.184480
siesta:    228   -0.042212    0.154948    0.396248
siesta:    229   -1.511886   -0.132981    0.060141
siesta:    230    1.057455    0.516935    0.767907
siesta:    231    0.205341   -0.358022   -0.609126
siesta:    232   -0.110958   -0.545417    0.140400
siesta:    233    0.317059    0.553584    0.030973
siesta:    234   -0.323055    0.022250    0.016955
siesta:    235   -2.803798   -2.180324   -1.240158
siesta:    236    0.797901    1.135346    2.154266
siesta:    237    2.072676    0.916221   -0.791061
siesta:    238   -1.450278    0.569143    0.576137
siesta:    239    0.819113   -0.389260   -0.749311
siesta:    240    0.547471   -0.104349    0.088172
siesta:    241   -0.990640    1.092476   -0.207561
siesta:    242    0.376255    0.040165    0.069166
siesta:    243    0.335033   -1.381042   -0.191108
siesta:    244   -0.819693    1.350708    0.066003
siesta:    245   -0.251352   -0.949583    0.130282
siesta:    246    1.050162   -0.258139   -0.016814
siesta:    247   -1.205196   -1.785201    0.028367
siesta:    248    1.373686    1.024041   -1.265871
siesta:    249   -0.208402    1.007462    1.125116
siesta:    250    0.471919   -1.219238    0.570426
siesta:    251   -0.267571    0.436079    0.165511
siesta:    252   -0.302401    0.172380   -0.324610
siesta:    253   -0.709401   -1.017405   -0.732169
siesta:    254   -0.385325   -0.272070    0.221910
siesta:    255    1.350315    1.394848    0.408027
siesta:    256    1.598626    0.363539   -0.414402
siesta:    257   -0.766737   -0.802601   -0.123952
siesta:    258   -0.675377    0.545359    0.232457
siesta:    259    3.090162    1.692642   -1.199520
siesta:    260   -1.908925   -1.748989    1.196333
siesta:    261   -0.413138    0.247370    0.137306
siesta:    262    0.909378    2.842475    1.715059
siesta:    263   -0.403712   -2.889139   -1.325767
siesta:    264   -0.009544   -0.303648   -0.474315
siesta:    265   -0.672969    0.605883    1.271221
siesta:    266    0.810316   -0.838244   -1.958104
siesta:    267    0.488201    0.255703    0.329489
siesta:    268    0.072420   -1.306484    0.376761
siesta:    269    0.164472    0.386431   -0.506037
siesta:    270   -0.021041    1.043011   -0.189604
siesta:    271   -1.779516    0.392696   -0.134071
siesta:    272   -0.132141   -1.239576   -0.858018
siesta:    273    1.380090    1.065705    0.831541
siesta:    274   -0.052546   -0.267117    0.369618
siesta:    275   -0.328354   -0.029406   -0.386433
siesta:    276    0.217145   -0.068764    0.095232
siesta:    277   -0.199186   -0.426927   -0.562648
siesta:    278    0.271849    0.230203   -0.021164
siesta:    279   -0.108687    0.078206    0.268499
siesta:    280    0.562655    0.131646   -0.000695
siesta:    281   -0.816441    0.879890   -0.672318
siesta:    282    0.371415   -0.992221    0.574198
siesta:    283   -0.380664   -0.275232    0.144956
siesta:    284    0.326786   -0.041917    0.271416
siesta:    285   -0.123292    0.025245   -0.024250
siesta:    286    0.011097   -1.590760    2.541938
siesta:    287    1.689361    1.642913   -0.480805
siesta:    288   -1.603350   -0.316690   -1.671961
siesta:    289    1.405088    0.297127    1.400109
siesta:    290   -1.642035   -0.850361   -2.007340
siesta:    291    0.374792    0.393654    0.907343
siesta:    292   -0.944407   -2.491086    1.869670
siesta:    293    0.187674    1.651418   -1.836177
siesta:    294    0.651741    0.617630    0.200917
siesta:    295   -1.455103   -0.892849    0.929060
siesta:    296    0.470176   -0.510467   -0.453132
siesta:    297    1.476154    1.392949   -0.221769
siesta:    298    1.031077   -0.446981    0.665539
siesta:    299   -0.038333    0.255423   -0.465240
siesta:    300   -0.352633    0.361415    0.171947
siesta:    301   -1.741347   -2.719009   -0.052125
siesta:    302   -0.831795    1.163276   -1.217242
siesta:    303    2.724180    1.775829    1.013723
siesta:    304   -1.664807   -1.574520   -0.379282
siesta:    305    1.261005    0.218326   -0.808641
siesta:    306   -0.052432    1.427398    1.096634
siesta:    307   -1.087232   -0.088108   -0.971510
siesta:    308    0.492342    0.003098    0.360164
siesta:    309    0.531053    0.185185    0.491980
siesta:    310    0.338398   -1.788913   -0.656939
siesta:    311   -1.451756    1.525088    0.588624
siesta:    312    1.424070    0.212945    0.022373
siesta:    313    1.396362    1.798705   -1.335776
siesta:    314   -2.231366   -0.305590   -0.321273
siesta:    315    0.998824   -1.267841    1.358262
siesta:    316    2.293471    0.039218    0.344067
siesta:    317   -0.617944    0.065150   -0.250603
siesta:    318   -1.619256    0.004338    0.344801
siesta:    319   -1.672716   -0.250602   -1.480670
siesta:    320    1.241832    0.830339   -0.017933
siesta:    321    0.292480   -0.555131    1.219441
siesta:    322   -0.125050    1.255114    0.787746
siesta:    323    0.320962   -0.231352   -0.795239
siesta:    324   -0.381657   -0.711207   -0.404244
siesta:    325   -0.080231    0.007419   -0.573568
siesta:    326   -0.336556   -0.137659    0.137684
siesta:    327    0.327295    0.367606    0.569515
siesta:    328    0.567046   -0.930076    0.003745
siesta:    329   -1.468804    1.115034   -0.262385
siesta:    330    0.852239   -0.118651    0.381900
siesta:    331    0.851962   -2.366828   -0.710476
siesta:    332   -0.270865    0.051104    0.123635
siesta:    333   -0.519739    2.184005    0.960222
siesta:    334    1.348601    0.038231    0.346545
siesta:    335   -0.103004   -0.073940    0.059982
siesta:    336   -1.288656    0.170023   -0.590000
siesta:    337    1.230398    3.685232    0.320310
siesta:    338   -0.434603   -0.805342    0.130172
siesta:    339   -0.658178   -3.031158   -0.462018
siesta:    340    0.962727   -0.797323   -0.427642
siesta:    341    0.597011    0.012590    0.060781
siesta:    342   -1.485022    0.817024    0.603760
siesta:    343   -0.427017   -0.563478    0.905447
siesta:    344    0.697372    1.509459   -0.779499
siesta:    345   -0.146373   -0.531520   -0.329045
siesta:    346   -0.218146   -0.920951    0.417610
siesta:    347   -0.160166    0.997478   -0.101967
siesta:    348    0.151494   -0.021558   -0.011010
siesta:    349   -0.322691   -0.776163    2.177441
siesta:    350    0.254924   -0.102966   -0.055528
siesta:    351   -0.067944    0.648578   -2.010445
siesta:    352    0.530832    0.814826   -0.427205
siesta:    353   -0.069985   -0.291304   -0.649783
siesta:    354   -0.182360   -0.189907    0.806295
siesta:    355   -0.660256    0.732106    0.344172
siesta:    356   -0.266873   -1.132680    0.124907
siesta:    357    0.630696    0.410630   -0.638682
siesta:    358   -1.554084   -1.211098    0.564997
siesta:    359    0.332742   -0.090497   -1.017082
siesta:    360    1.080148    0.971436    0.698162
siesta:    361    0.269797    0.480922    1.761129
siesta:    362   -0.253626   -0.610178   -1.639814
siesta:    363   -0.040823    0.664851   -0.158867
siesta:    364   -0.957197   -0.449269   -1.077025
siesta:    365    0.717888    0.490808    0.485190
siesta:    366    0.424599   -0.232003    0.418780
siesta:    367   -2.046292    0.501339    1.333759
siesta:    368    0.848824   -0.061812    0.038589
siesta:    369    0.858546   -0.697931   -1.174582
siesta:    370    1.013209    0.960158    0.163224
siesta:    371    0.008778    0.205336   -0.154925
siesta:    372   -1.046833   -1.287497    0.366770
siesta:    373    2.066076   -0.667647    0.190727
siesta:    374    0.034440    0.411693   -0.397667
siesta:    375   -1.431361    0.008152   -0.004035
siesta:    376   -1.035989    0.033652   -1.013945
siesta:    377   -0.027351    0.168274   -0.086582
siesta:    378    0.781235   -0.004761    1.233004
siesta:    379    0.896994    0.845520   -0.562208
siesta:    380   -0.263481   -0.142436   -0.092466
siesta:    381   -0.721313   -0.469661    0.553804
siesta:    382    0.110014   -0.318808    1.915406
siesta:    383    0.518655   -0.375965   -1.477394
siesta:    384   -0.204665    0.121446   -0.547351
siesta: ----------------------------------------
siesta:    Tot   -0.037802    0.049192    0.002779

siesta: Stress tensor (static) (eV/Ang**3):
siesta:    -0.016399   -0.002048    0.000613
siesta:    -0.002048   -0.015040   -0.001728
siesta:     0.000613   -0.001728   -0.014392

siesta: Cell volume =       3830.098806 Ang**3

siesta: Pressure (static):
siesta:                Solid            Molecule  Units
siesta:           0.00016639         -0.00001290  Ry/Bohr**3
siesta:           0.01527692         -0.00118400  eV/Ang**3
siesta:          24.47658254         -1.89700427  kBar
(Free)E+ p_basis*V_orbitals  =      -60087.549519
(Free)Eharris+ p_basis*V_orbitals  =      -60087.549519
>> End of run:  12-MAR-2018  16:12:18
Job completed
