Siesta Version: siesta-4.0--530
Architecture  : x86_64-unknown-linux-gnu--unknown
Compiler flags: mpif90 -g -O2
PP flags      : -DMPI -DFC_HAVE_FLUSH -DFC_HAVE_ABORT 
PARALLEL version

* Running on   64 nodes in parallel
>> Start of run:  12-MAR-2018  16:10:41

                           ***********************       
                           *  WELCOME TO SIESTA  *       
                           ***********************       

reinit: Reading from standard input
************************** Dump of input data file ****************************
SystemName  H2O
SystemLabel  H2O
NumberOfSpecies  2
NumberOfAtoms  384
%block ChemicalSpecieslabel
    1 8 O.vdw.1
    2 1 H.vdw.2
%endblock ChemicalSpecieslabel
%block PAO.Basis
O.vdw.1     3     -0.24233
n=2   0   2   E    23.36061     3.39721
     4.50769     2.64066
     1.00000     1.00000
n=2   1   2   E     2.78334     5.14253
     6.14996     2.59356
     1.00000     1.00000
n=3   2   1   E    63.98188     0.16104
     3.54403
     1.00000
H.vdw.2 2      0.46527
n=1   0   2   E    99.93138     2.59932
     4.20357     1.84463
     1.00000     1.00000
n=2   1   1   E    24.56504     2.20231
     3.5281
     1.00000
%endblock PAO.Basis
LatticeConstant  1.0 Ang
%block LatticeVectors
    15.646000000000001     0.000000000000000     0.000000000000000
    0.000000000000000     15.646000000000001     0.000000000000000
    0.000000000000000     0.000000000000000     15.646000000000001
%endblock LatticeVectors
AtomicCoordinatesFormat  Ang
%block AtomicCoordinatesAndAtomicSpecies
     1.851227622     16.069803757     15.581033092 1
     2.364012075     16.395386291     16.267331297 2
     2.304617961     15.227223457     15.412006544 2
    -2.736615934     18.099515928     10.704018436 1
    -3.304001910     17.406187705     11.007765371 2
    -3.138330019     18.941498322     10.770631917 2
    -4.499435997      0.453328495     11.946356315 1
    -5.093764220      0.117606961     11.266044446 2
    -5.055541843      0.867462067     12.645311374 2
     4.746457247     11.718389896     -0.301682102 1
     4.105893887     11.258161264     -0.823487089 2
     5.617502335     11.376194275     -0.513612854 2
    -2.287050491      2.220612180      1.112295384 1
    -1.542384318      2.208314028      1.740520657 2
    -3.014870449      2.768900000      1.481756908 2
    -7.035570342      2.645319128     17.598893398 1
    -7.274539524      2.411800063     16.715707895 2
    -7.673076448      2.214051016     18.203293137 2
     9.494587104     14.752360290      9.945247676 1
     9.333256737     15.598163052      9.433281822 2
     8.628700468     14.611929188     10.402434526 2
     5.166906855      2.701251632      7.104428466 1
     4.972536474      3.534900696      6.636398709 2
     4.642511515      2.759113253      7.929849725 2
     7.908288993     12.212304569     16.666706611 1
     8.764455582     11.799852299     16.602161610 2
     7.760644677     12.821254752     15.876795103 2
     7.152069779     -2.546992313     12.084320494 1
     7.261854092     -2.205404969     12.954235191 2
     7.876997375     -3.146560362     11.849761313 2
    12.158881727      6.011798941      8.514142451 1
    11.956552528      5.147329890      8.199191313 2
    11.340693350      6.505060611      8.215498058 2
     8.788854952      6.551307992      1.259216267 1
     9.413620962      7.185734546      0.784040518 2
     8.076522162      7.102100250      1.612444956 2
    12.805055543     10.937149414     17.981179018 1
    13.106943085     11.848375138     18.093350902 2
    13.507082091     10.417254688     18.362212841 2
    20.451713147      5.945389553     14.292943024 1
    19.945030916      5.330540490     13.690159539 2
    20.097967065      5.687513748     15.105552821 2
    15.397962683     -1.173221946      1.353182000 1
    15.912857914     -0.354406397      1.349521862 2
    14.483940650     -0.872558483      1.161463208 2
    -10.869201296     16.452961777     11.305077617 1
    -9.910169446     16.699851039     11.093691873 2
    -11.078999602     16.748215749     12.205996049 2
    14.935440689      6.299973353      7.461620157 1
    14.097223053      6.433357609      7.933732532 2
    15.031660263      5.285129955      7.392259632 2
     7.709437017     10.215908008      7.231126685 1
     8.083369526     10.851881146      7.859143952 2
     8.346016361      9.553854430      7.255201572 2
     1.527350827     -3.233658904      5.878718334 1
     0.689821051     -3.636359205      5.765703170 2
     2.178707265     -3.956181391      5.679043960 2
     0.940323877     24.016162104      0.375647634 1
     0.035995647     24.182807950      0.246594625 2
     1.319714755     24.850070272      0.761996660 2
     4.420271416     14.488933233     15.111058483 1
     4.663599220     13.511658169     15.225166070 2
     4.234521644     14.628171178     14.150802182 2
    -2.093314701     13.209828566      4.428750791 1
    -1.741233063     14.101762655      4.589807684 2
    -2.970441110     13.282862521      4.752716319 2
     7.532961838      9.524140881     -11.133350251 1
     7.226224942      8.617113737     -11.388226548 2
     7.155440476      9.580219776     -10.249294478 2
     7.370354557      1.270221216      6.361679602 1
     7.196359148      0.375246785      6.162877611 2
     6.539324007      1.654473006      6.535444819 2
     7.153794616     20.052925849     12.517855161 1
     6.646219659     20.410538039     13.251374161 2
     7.767036194     20.716285603     12.189092724 2
    11.565815674      9.814608083      9.436774853 1
    11.855051075      9.478656605     10.292371437 2
    11.193241661     10.658341075      9.585378012 2
    20.763157809     10.701891332     11.870185316 1
    20.180393132     11.135517003     11.244981280 2
    21.404574723     11.374968542     12.115002759 2
    10.791536413     -8.371494264      5.876463412 1
    10.433770797     -7.675588835      5.253056245 2
    10.674970718     -9.209650832      5.422201755 2
    -5.372719373      1.719242720     14.004828704 1
    -6.339470424      1.946883245     14.145919512 2
    -4.980959680      2.655771644     13.752728191 2
     1.626053533      2.947910408      5.985335105 1
     2.334207491      2.381485713      5.745026706 2
     1.786307866      3.898711692      5.721615460 2
     4.481178645     10.749557759      2.297807301 1
     4.786573015     11.068303703      1.431061001 2
     4.298017464      9.794761799      2.247008985 2
    -0.040056242      6.043259834      2.104333120 1
    -0.528722077      5.782505205      1.235973583 2
     0.265840690      6.970376733      1.923366148 2
     5.605863752      8.264089484     13.193455209 1
     5.091903173      9.097958097     13.127490130 2
     5.288439922      7.778620306     13.941045246 2
    14.669112767      4.480179358     -0.004226220 1
    13.853966861      4.047675231      0.237805689 2
    14.383356578      4.983851641     -0.827146759 2
    12.003635506     12.385050980      6.949400505 1
    12.156239870     11.410301408      7.089536643 2
    11.090767222     12.448897429      6.742951456 2
     3.733228829     14.793468295     24.826701486 1
     4.376144863     15.278370197     25.324601531 2
     2.936957232     15.343026233     24.649548422 2
    14.775954796     11.293929986      5.853184553 1
    14.188539515     10.850145268      6.460530546 2
    14.111522449     11.962150047      5.553209943 2
    -2.370385280     12.682449061     -4.099985507 1
    -1.775338092     12.882041537     -4.852586872 2
    -2.431991362     13.410916357     -3.472068239 2
     1.063964541     14.247054387      4.011715293 1
     1.269882651     13.378992529      4.412141743 2
     0.498168352     14.120614996      3.238035010 2
     5.462332829     14.013419196      4.466854632 1
     4.546241543     13.939608384      4.790326068 2
     5.812133875     13.162276811      4.085632379 2
     9.549441643     12.988853229      5.574866603 1
     8.804777294     13.483843480      5.897354017 2
     9.417932884     12.833907939      4.674391467 2
     3.587539760     16.844777019      5.629081788 1
     4.444250407     17.148905024      5.979257768 2
     3.296423436     16.068722229      6.112596107 2
    10.672363264     11.044468934      0.564361506 1
    11.410940441     10.807178766      1.125086935 2
    11.018221899     11.414261194     -0.312263950 2
     8.813729116      4.491491700     -0.690508013 1
     9.486674295      5.068420783     -1.098233381 2
     8.553444881      5.023888809      0.037769461 2
    15.643581446      3.041756343     11.281453802 1
    14.712857623      2.813345584     11.422265428 2
    15.787962479      2.857022074     10.342020460 2
    10.923256735     12.366583267     10.269275879 1
    11.790642147     12.455402963     10.716798119 2
    10.602107654     13.187934322      9.897162640 2
     3.297981170     12.000677000      9.853291891 1
     2.382722483     11.820293354      9.994866795 2
     3.244405974     12.966119800      9.752909232 2
     5.580132992      6.063293236      6.941453333 1
     4.867067948      5.918836982      6.296695736 2
     5.577953042      6.957895635      7.322050421 2
    -4.497634730      4.449205365     13.602523330 1
    -4.422490253      4.972159167     12.798830512 2
    -3.958698972      4.883494951     14.337731443 2
     7.471202895      1.906398167     11.217349501 1
     7.415782059      2.883370198     11.405300700 2
     8.229591105      1.857533889     10.639366109 2
     5.874455823      0.656230255      0.804562238 1
     6.045483919      0.510218273      1.773415291 2
     5.367226559     -0.099954316      0.547546749 2
    -0.360476085     13.172847890      9.673628433 1
    -1.025518512     13.422105631      8.995521280 2
    -0.230684483     12.218545808      9.574040633 2
    13.955061059     15.917359157      3.874402283 1
    13.382088735     16.621928908      4.286173203 2
    14.647784176     16.404003896      3.453526004 2
    17.244226810     -7.610335374      4.921116494 1
    16.466436823     -7.150783290      4.614234834 2
    17.816160814     -7.057977640      5.344911889 2
    15.845728745     17.568000358      2.743164496 1
    16.809154279     17.518908349      2.736153763 2
    15.662572446     18.442959782      3.104365091 2
    -2.139859625     15.086950761     12.832881072 1
    -2.893162935     15.455206239     12.339133914 2
    -1.923485430     15.615107644     13.623874094 2
    14.340576567      3.380156022      6.058515209 1
    13.947664126      2.826913284      6.782518784 2
    15.296246702      3.125254128      6.134950702 2
    19.162043603      5.446532140     16.917720273 1
    19.631124404      4.598292718     16.997420229 2
    18.296142980      5.154985177     16.629798373 2
     0.180681223     -0.581533702      6.281795693 1
     0.451993089     -0.832512282      5.380149947 2
     0.913856456     -0.930978526      6.825525748 2
     7.609442706      7.059807065      9.892856900 1
     6.767145071      6.700356635      9.603680563 2
     8.078357313      7.519493639      9.162703947 2
     3.145077488     -6.235277166      6.806188269 1
     3.835990041     -6.689836122      7.321137748 2
     3.669856992     -5.829275127      6.102931996 2
     6.990052746     20.414577883      3.370700811 1
     7.528405049     20.458553787      2.558386729 2
     7.431029483     19.746266748      3.936076298 2
    -0.180623066      9.680442752     12.678188674 1
     0.440464644      8.999671377     13.028549078 2
    -0.933312549      9.955812137     13.322349328 2
    11.124529965      3.503069954     -7.817615064 1
    10.952317091      3.848671600     -8.677752373 2
    11.802401506      2.783612018     -7.860483714 2
    10.768734316      0.688655221      2.696108134 1
    10.750732428      0.724268607      3.680972416 2
    10.118112122      1.365495600      2.377623606 2
    14.619186278      0.916661518     14.566984905 1
    15.575394865      0.862930987     14.688310007 2
    14.266667860      1.556075149     15.145863080 2
    12.996894802      8.827546306     11.516699250 1
    13.260965054      7.939541357     11.778683768 2
    13.828213461      9.286918626     11.705176029 2
    15.907062768     12.341938753     -0.248870750 1
    15.969499913     13.231409761      0.116280536 2
    16.301470001     12.430041866     -1.088021813 2
    13.671206997      8.043146335     -0.309688583 1
    12.951973846      7.612337307      0.245093953 2
    13.413732473      8.886007199     -0.748056452 2
    12.755276872     -6.107310007      6.828138735 1
    12.712623879     -6.336982437      7.766847792 2
    12.929299452     -6.907180663      6.236077757 2
     1.434407842      5.243977541     20.496814575 1
     0.762846205      5.086606004     19.836962007 2
     1.539764963      6.208356271     20.557341573 2
     8.368637533      3.508899863      5.251291585 1
     8.301033673      4.331229179      5.763600327 2
     8.080760434      2.694119976      5.686095343 2
    16.952858686     -3.492435805     -2.855630175 1
    16.225507294     -2.996062647     -3.282069270 2
    16.716732310     -4.425716158     -2.906830257 2
     6.306060382     12.396973963      9.101619397 1
     6.711485911     12.571934010      9.927393027 2
     5.362373141     12.207203341      9.216497757 2
    17.570150082      3.749675515     15.463368907 1
    17.863817649      3.084835746     14.803831156 2
    16.609591602      3.589016492     15.536987037 2
     3.520740884      8.114704840      2.818621639 1
     2.882107962      8.011013394      3.505269711 2
     3.498463983      7.252644999      2.328467599 2
    13.763675603     26.460658324     14.270758289 1
    14.094757506     27.003445437     15.004571405 2
    13.001858651     26.950905751     13.905909818 2
     8.672233301     -1.154425744     18.243529573 1
     9.422076487     -0.585861796     18.029912861 2
     8.745836424     -1.851231620     17.521474524 2
    16.302812399      8.861674753      7.965120076 1
    15.936986868      8.462055686      7.108094683 2
    17.036082697      9.364792363      7.633867958 2
     9.334969636      5.713249167     -4.420705221 1
     9.996595089      5.184854901     -4.885460884 2
     8.801971373      6.049958188     -5.201237876 2
    19.975826624      7.650694678     10.736700082 1
    20.462164309      7.798351125     11.571749429 2
    20.295874128      6.788567824     10.405395152 2
    18.985683546     20.275477198     -3.465727716 1
    18.986693343     19.334292379     -3.210685209 2
    18.002084195     20.472430721     -3.540434231 2
    15.382816736      9.754955127      3.632817730 1
    15.927786690     10.062965398      2.906981410 2
    15.450529501     10.423994470      4.332788232 2
    -2.403205108     17.652540629      7.997096109 1
    -2.370964885     17.808071620      8.979033357 2
    -2.219802353     16.665356875      7.951170748 2
    10.388573693      9.041832877      3.811845229 1
     9.532759844      9.510521095      3.971318423 2
    11.021061195      9.644674122      4.171105676 2
    13.576337658     14.717061501      8.013909511 1
    12.971067871     14.197479595      7.505596909 2
    14.354449851     14.691588221      7.348963468 2
     6.507488200      0.417280103     18.890311638 1
     5.734033624      0.090004930     19.323442797 2
     7.180657327     -0.306064340     18.773506536 2
    16.089383401      5.696333979     11.844229484 1
    15.879753487      4.885883635     11.464310032 2
    16.493960901      6.298889730     11.160517264 2
     9.436901191     -7.496290528      8.411808257 1
     9.866316560     -7.723883733      7.566787831 2
    10.013565995     -6.794706937      8.784501505 2
    12.528644804     -0.873015732      1.238838865 1
    12.234340264     -0.445329160      2.086024422 2
    12.551753753     -0.054741465      0.709208102 2
     5.125153481     -12.698064489      2.091695721 1
     5.351174562     -13.404617379      1.473919554 2
     5.954176228     -12.315034339      2.377587609 2
     1.614167389     10.849669401      1.689311443 1
     1.272300251     11.519516146      1.045600039 2
     2.546655995     11.079172766      1.900217925 2
     1.112239762      3.957602856      8.843278222 1
     1.482528084      4.830078788      9.070013348 2
     1.522698535      3.678768887      7.972392113 2
     2.109621443     17.690348464     12.960607054 1
     1.308782767     17.854430736     12.463651135 2
     2.104952849     16.806322093     13.320552043 2
    13.711135631      7.530326591      4.917240927 1
    12.756082209      7.344593237      5.104734796 2
    14.115819209      6.916567293      5.592620194 2
     9.194575994      1.582442506      8.495667225 1
     9.845024330      2.278470050      8.301538049 2
     8.499679849      1.586831889      7.856514987 2
     9.931968740      8.256659419     15.123471578 1
     9.490543979      8.213812498     14.296878482 2
    10.292290218      9.178215816     15.053549970 2
    -3.039118589     20.964613972     -4.520507343 1
    -3.081425090     21.569571921     -5.236762516 2
    -2.406015623     21.302189072     -3.867586857 2
     5.207259190      8.414645887      8.316646576 1
     4.876117533      8.377526342      9.286813731 2
     5.747848746      9.207244983      8.386561620 2
    10.984400340     11.855420876     13.654266833 1
    10.628712723     12.783627524     13.620251027 2
    10.331385271     11.302355608     13.162117145 2
     1.566672822     -8.820524631      9.824727274 1
     1.126195730     -8.341441297      9.137182322 2
     2.349465966     -8.367533334     10.011323368 2
    -1.503422722      6.071119374     13.423593671 1
    -0.577950411      6.066682528     13.136032406 2
    -1.682270130      6.938911208     13.790706931 2
     8.563895421      8.165251581     12.781978078 1
     8.964620014      7.563036235     12.105067230 2
     7.575083691      8.109810727     12.631803273 2
     7.524094251     -1.423510091     -0.974456446 1
     7.020261037     -0.660903143     -0.705714837 2
     8.442518226     -1.223005329     -1.094291900 2
     3.709377766     18.230824242      9.464326457 1
     2.778514442     18.080987906      9.424265909 2
     4.145804045     17.717575102     10.150325420 2
    11.616430952      4.657814545     16.119442528 1
    12.002069776      5.243289165     16.845976119 2
    10.673344869      4.744162240     16.310244013 2
    18.524236191      1.446412765     18.454056262 1
    19.152997686      2.176511171     18.520155704 2
    18.509578093      0.979635312     19.275650837 2
     3.387092026     14.073016216     12.774759601 1
     3.884708205     14.219950813     11.945189419 2
     3.246689055     13.108387325     12.625390723 2
     1.467123309     16.344342624      8.802294678 1
     1.015222990     16.214616960      9.640303925 2
     0.923966041     16.245160939      7.984992801 2
     6.498820373      7.440850401      3.064359788 1
     5.685986332      7.893676488      2.882681827 2
     6.345278380      6.482605667      3.181173753 2
     1.526620308     -7.889955935     13.368520526 1
     1.412140675     -7.952421176     14.357093449 2
     1.517167695     -8.846921111     12.936129297 2
     4.513121257     -11.100849228      4.987649804 1
     5.196969013     -11.017435568      4.293740443 2
     3.693000544     -10.823279407      4.598966218 2
    15.652684038     -0.012546052     10.948227379 1
    15.027980830     -0.068324235     11.693042671 2
    15.635145264     -0.887510906     10.623171141 2
    -3.221066556      6.921082024      1.843378493 1
    -2.424086804      7.002334817      2.426197636 2
    -3.923388042      7.303802999      2.373814937 2
    13.582512349      3.594095571      3.618153722 1
    13.916484214      4.470433214      3.369379079 2
    13.802345930      3.561726306      4.620393108 2
     3.142232605     10.042643304     13.687183959 1
     2.688624752      9.145012237     13.750341705 2
     3.369408718     10.221672202     12.756462003 2
     7.588535277     17.221439073     14.129839986 1
     6.695175462     17.448298558     14.435652078 2
     7.624826123     17.571994114     13.248565108 2
     0.104790928     10.567508323     10.032064736 1
     0.076258639      9.794200602      9.452447261 2
     0.034092489     10.214678927     10.944978084 2
     9.295809956     10.870042010     11.894272729 1
     9.123311553      9.941810154     11.940813648 2
     9.762220217     11.119338716     11.061162944 2
    19.766215998     -4.268979459      4.990498923 1
    20.176105849     -4.348186432      4.097934214 2
    20.327516241     -3.680915510      5.493149223 2
     5.330280372      5.162883642      9.790303230 1
     5.140618257      4.606205766      9.015221742 2
     5.106650701      4.612033922     10.561454539 2
    19.226801912     -1.551284319      6.587748854 1
    18.383516093     -2.057989544      6.430547506 2
    19.268118578     -1.444961118      7.555073834 2
    11.220474045     20.274462952     20.465380228 1
    10.417097278     20.054290349     19.950182628 2
    11.921660500     20.092806858     19.827486212 2
    11.063604074     15.889741787      5.304614249 1
    11.437262033     16.373196968      6.071086193 2
    10.461689218     15.308268688      5.724395170 2
     8.072237661      6.032171319     21.986781636 1
     8.234859714      6.685592269     21.279116269 2
     7.135751296      6.009191592     22.187510636 2
    10.519638743     -1.242878826     14.718728305 1
    10.901129993     -0.391964161     14.399499073 2
    10.979243896     -1.418245797     15.532358971 2
     7.219898236     14.041657786     -9.010873384 1
     6.446422336     13.790312519     -9.560710114 2
     7.075917940     13.722919521     -8.142753767 2
     6.743461340     12.049367638      3.586252499 1
     6.945181149     12.060131262      2.667058092 2
     6.882080435     11.110574543      3.882853057 2
%endblock AtomicCoordinatesAndAtomicSpecies
XC.functional  VDW
XC.authors  BH
DM.MixingWeight  0.3
DM.NumberPulay  3
DM.UseSaveDM  True
DM.FormattedFiles  True
MeshCutoff  2721.1386 eV
ElectronicTemperature  0.00500000 eV
WriteMullikenPop  1
************************** End of input data file *****************************

reinit: -----------------------------------------------------------------------
reinit: System Name: H2O
reinit: -----------------------------------------------------------------------
reinit: System Label: H2O                                                         
reinit: -----------------------------------------------------------------------

initatom: Reading input for the pseudopotentials and atomic orbitals ----------
 Species number:            1  Label: O.vdw.1 Atomic number:           8
 Species number:            2  Label: H.vdw.2 Atomic number:           1
Ground state valence configuration:   2s02  2p04
Reading pseudopotential information in formatted form from O.vdw.1.psf

Valence configuration for pseudopotential generation:
2s( 2.00) rc: 1.14
2p( 4.00) rc: 1.14
3d( 0.00) rc: 1.14
4f( 0.00) rc: 1.14
Ground state valence configuration:   1s01
Reading pseudopotential information in formatted form from H.vdw.2.psf

Valence configuration for pseudopotential generation:
1s( 1.00) rc: 1.25
2p( 0.00) rc: 1.25
3d( 0.00) rc: 1.25
4f( 0.00) rc: 1.25
For O.vdw.1, standard SIESTA heuristics set lmxkb to 3
 (one more than the basis l, including polarization orbitals).
Use PS.lmax or PS.KBprojectors blocks to override.
For H.vdw.2, standard SIESTA heuristics set lmxkb to 2
 (one more than the basis l, including polarization orbitals).
Use PS.lmax or PS.KBprojectors blocks to override.

<basis_specs>
===============================================================================
O.vdw.1              Z=   8    Mass=  16.000        Charge=-0.24233    
Lmxo=2 Lmxkb= 3    BasisType=split      Semic=F
L=0  Nsemic=0  Cnfigmx=2
          n=1  nzeta=2  polorb=0
            splnorm:   0.15000    
               vcte:    23.361    
               rinn:    3.3972    
               qcoe:    0.0000    
               qyuk:    0.0000    
               qwid:   0.10000E-01
                rcs:    4.5077      2.6407    
            lambdas:    1.0000      1.0000    
L=1  Nsemic=0  Cnfigmx=2
          n=1  nzeta=2  polorb=0
            splnorm:   0.15000    
               vcte:    2.7833    
               rinn:    5.1425    
               qcoe:    0.0000    
               qyuk:    0.0000    
               qwid:   0.10000E-01
                rcs:    6.1500      2.5936    
            lambdas:    1.0000      1.0000    
L=2  Nsemic=0  Cnfigmx=3
          n=1  nzeta=1  polorb=0
            splnorm:   0.15000    
               vcte:    63.982    
               rinn:   0.16104    
               qcoe:    0.0000    
               qyuk:    0.0000    
               qwid:   0.10000E-01
                rcs:    3.5440    
            lambdas:    1.0000    
-------------------------------------------------------------------------------
L=0  Nkbl=1  erefs: 0.17977+309
L=1  Nkbl=1  erefs: 0.17977+309
L=2  Nkbl=1  erefs: 0.17977+309
L=3  Nkbl=1  erefs: 0.17977+309
===============================================================================
</basis_specs>

atom: Called for O.vdw.1               (Z =   8)

read_vps: Pseudopotential generation method:
read_vps: ATM3      Troullier-Martins                       
Total valence charge:    6.00000

read_vps: Pseudopotential includes a core correction:
read_vps: Pseudo-core for xc-correction

xc_check: Exchange-correlation functional:
xc_check: VDW Berland-Hyldgaard
xc_check: WARNING: Pseudopotential generated with GGA PBE functional
V l=0 = -2*Zval/r beyond r=  1.1278
V l=1 = -2*Zval/r beyond r=  1.1278
V l=2 = -2*Zval/r beyond r=  1.1278
V l=3 = -2*Zval/r beyond r=  1.1278
All V_l potentials equal beyond r=  1.1278
This should be close to max(r_c) in ps generation
All pots = -2*Zval/r beyond r=  1.1278

VLOCAL1: 99.0% of the norm of Vloc inside     34.126 Ry
VLOCAL1: 99.9% of the norm of Vloc inside     77.774 Ry
atom: Maximum radius for 4*pi*r*r*local-pseudopot. charge    1.37759
atom: Maximum radius for r*vlocal+2*Zval:    1.18566
GHOST: No ghost state for L =  0
GHOST: No ghost state for L =  1
GHOST: No ghost state for L =  2
GHOST: No ghost state for L =  3

KBgen: Kleinman-Bylander projectors: 
   l= 0   rc=  1.262145   el= -1.750162   Ekb=  9.253102   kbcos=  0.327868
   l= 1   rc=  1.262145   el= -0.658346   Ekb= -7.898073   kbcos= -0.392576
   l= 2   rc=  1.343567   el=  0.002386   Ekb= -1.922781   kbcos= -0.003578
   l= 3   rc=  1.394919   el=  0.003508   Ekb= -0.738254   kbcos= -0.000365

KBgen: Total number of  Kleinman-Bylander projectors:   16
atom: -------------------------------------------------------------------------

atom: SANKEY-TYPE ORBITALS:
atom: Selected multiple-zeta basis: split     

atom: basis set generated (by rescaling the valence charge)
atom: for an anion of charge  -0.2423

SPLIT: Orbitals with angular momentum L= 0

SPLIT: Basis orbitals for state 2s

   izeta = 1
                 lambda =    1.000000
                     rc =    4.574469
                 energy =   -1.747125
                kinetic =    1.486382
    potential(screened) =   -3.233508
       potential(ionic) =  -11.045689

   izeta = 2
                 rmatch =    2.639108
              splitnorm =    0.146289
                 energy =   -1.544315
                kinetic =    2.317735
    potential(screened) =   -3.862050
       potential(ionic) =  -12.314290

SPLIT: Orbitals with angular momentum L= 1

SPLIT: Basis orbitals for state 2p

   izeta = 1
                 lambda =    1.000000
                     rc =    6.174996
                 energy =   -0.651333
                kinetic =    4.269728
    potential(screened) =   -4.921061
       potential(ionic) =  -12.264742

   izeta = 2
                 rmatch =    2.639108
              splitnorm =    0.214693
                 energy =   -0.406979
                kinetic =    7.103166
    potential(screened) =   -7.510145
       potential(ionic) =  -16.083971

SPLIT: Orbitals with angular momentum L= 2

SPLIT: Basis orbitals for state 3d

   izeta = 1
                 lambda =    1.000000
                     rc =    3.562532
                 energy =    3.653736
                kinetic =    6.475620
    potential(screened) =   -2.821883
       potential(ionic) =   -9.990305
atom: Total number of Sankey-type orbitals: 13

atm_pop: Valence configuration (for local Pseudopot. screening):
 2s( 2.00)                                                            
 2p( 4.00)                                                            
 3d( 0.00)                                                            
Vna: chval, zval:    6.00000   6.00000

Vna:  Cut-off radius for the neutral-atom potential:   6.174996
comcore: Pseudo-core radius Rcore=  1.377587

atom: _________________________________________________________________________

<basis_specs>
===============================================================================
H.vdw.2              Z=   1    Mass=  1.0100        Charge= 0.46527    
Lmxo=1 Lmxkb= 2    BasisType=split      Semic=F
L=0  Nsemic=0  Cnfigmx=1
          n=1  nzeta=2  polorb=0
            splnorm:   0.15000    
               vcte:    99.931    
               rinn:    2.5993    
               qcoe:    0.0000    
               qyuk:    0.0000    
               qwid:   0.10000E-01
                rcs:    4.2036      1.8446    
            lambdas:    1.0000      1.0000    
L=1  Nsemic=0  Cnfigmx=2
          n=1  nzeta=1  polorb=0
            splnorm:   0.15000    
               vcte:    24.565    
               rinn:    2.2023    
               qcoe:    0.0000    
               qyuk:    0.0000    
               qwid:   0.10000E-01
                rcs:    3.5281    
            lambdas:    1.0000    
-------------------------------------------------------------------------------
L=0  Nkbl=1  erefs: 0.17977+309
L=1  Nkbl=1  erefs: 0.17977+309
L=2  Nkbl=1  erefs: 0.17977+309
===============================================================================
</basis_specs>

atom: Called for H.vdw.2               (Z =   1)

read_vps: Pseudopotential generation method:
read_vps: ATM3      Troullier-Martins                       
Total valence charge:    1.00000

xc_check: Exchange-correlation functional:
xc_check: VDW Berland-Hyldgaard
xc_check: WARNING: Pseudopotential generated with GGA PBE functional
V l=0 = -2*Zval/r beyond r=  1.2343
V l=1 = -2*Zval/r beyond r=  1.2189
V l=2 = -2*Zval/r beyond r=  1.2189
All V_l potentials equal beyond r=  1.2343
This should be close to max(r_c) in ps generation
All pots = -2*Zval/r beyond r=  1.2343

VLOCAL1: 99.0% of the norm of Vloc inside     28.493 Ry
VLOCAL1: 99.9% of the norm of Vloc inside     64.935 Ry
atom: Maximum radius for 4*pi*r*r*local-pseudopot. charge    1.45251
atom: Maximum radius for r*vlocal+2*Zval:    1.21892
GHOST: No ghost state for L =  0
GHOST: No ghost state for L =  1
GHOST: No ghost state for L =  2

KBgen: Kleinman-Bylander projectors: 
   l= 0   rc=  1.364359   el= -0.474566   Ekb= -2.022290   kbcos= -0.345658
   l= 1   rc=  1.434438   el=  0.001422   Ekb= -0.443448   kbcos= -0.022709
   l= 2   rc=  1.470814   el=  0.002365   Ekb= -0.140530   kbcos= -0.002880

KBgen: Total number of  Kleinman-Bylander projectors:    9
atom: -------------------------------------------------------------------------

atom: SANKEY-TYPE ORBITALS:
atom: Selected multiple-zeta basis: split     

atom: basis set generated (by rescaling the valence charge)
atom: for a cation of charge   0.4653

SPLIT: Orbitals with angular momentum L= 0

SPLIT: Basis orbitals for state 1s

   izeta = 1
                 lambda =    1.000000
                     rc =    4.260636
                 energy =   -0.875216
                kinetic =    1.371864
    potential(screened) =   -2.247080
       potential(ionic) =   -2.300626

   izeta = 2
                 rmatch =    1.865767
              splitnorm =    0.571489
                 energy =    0.470272
                kinetic =    4.356176
    potential(screened) =   -3.885904
       potential(ionic) =   -3.840372

SPLIT: Orbitals with angular momentum L= 1

SPLIT: Basis orbitals for state 2p

   izeta = 1
                 lambda =    1.000000
                     rc =    3.576223
                 energy =    0.839521
                kinetic =    2.014191
    potential(screened) =   -1.174670
       potential(ionic) =   -1.303990
atom: Total number of Sankey-type orbitals:  5

atm_pop: Valence configuration (for local Pseudopot. screening):
 1s( 1.00)                                                            
 2p( 0.00)                                                            
Vna: chval, zval:    1.00000   1.00000

Vna:  Cut-off radius for the neutral-atom potential:   4.260636

atom: _________________________________________________________________________

prinput: Basis input ----------------------------------------------------------

PAO.BasisType split     

%block ChemicalSpeciesLabel
    1    8 O.vdw.1                 # Species index, atomic number, species label
    2    1 H.vdw.2                 # Species index, atomic number, species label
%endblock ChemicalSpeciesLabel

%block PAO.Basis                 # Define Basis set
O.vdw.1               3  -0.242            # Label, l-shells, ionic net charge
 n=2   0   2                         # n, l, Nzeta 
   4.574      2.639   
   1.000      1.000   
 n=2   1   2                         # n, l, Nzeta 
   6.175      2.639   
   1.000      1.000   
 n=3   2   1                         # n, l, Nzeta 
   3.563   
   1.000   
H.vdw.2               2   0.465            # Label, l-shells, ionic net charge
 n=1   0   2                         # n, l, Nzeta 
   4.261      1.866   
   1.000      1.000   
 n=2   1   1                         # n, l, Nzeta 
   3.576   
   1.000   
%endblock PAO.Basis

prinput: ----------------------------------------------------------------------

coor:   Atomic-coordinates input format  =     Cartesian coordinates
coor:                                          (in Angstroms)

siesta: Atomic coordinates (Bohr) and species
siesta:      3.49831  30.36754  29.44390  1        1
siesta:      4.46734  30.98280  30.74081  2        2
siesta:      4.35510  28.77529  29.12448  2        3
siesta:     -5.17146  34.20314  20.22767  1        4
siesta:     -6.24366  32.89294  20.80167  2        5
siesta:     -5.93059  35.79426  20.35355  2        6
siesta:     -8.50271   0.85667  22.57535  1        7
siesta:     -9.62582   0.22225  21.28975  2        8
siesta:     -9.55359   1.63927  23.89618  2        9
siesta:      8.96951  22.14456  -0.57010  1       10
siesta:      7.75902  21.27485  -1.55617  2       11
siesta:     10.61555  21.49790  -0.97059  2       12
siesta:     -4.32190   4.19635   2.10193  1       13
siesta:     -2.91469   4.17311   3.28911  2       14
siesta:     -5.69728   5.23246   2.80012  2       15
siesta:    -13.29531   4.99893  33.25710  1       16
siesta:    -13.74689   4.55764  31.58812  2       17
siesta:    -14.50002   4.18395  34.39925  2       18
siesta:     17.94218  27.87793  18.79380  1       19
siesta:     17.63731  29.47627  17.82633  2       20
siesta:     16.30589  27.61256  19.65776  2       21
siesta:      9.76404   5.10463  13.42543  1       22
siesta:      9.39674   6.68000  12.54098  2       23
siesta:      8.77308   5.21397  14.98525  2       24
siesta:     14.94451  23.07792  31.49552  1       25
siesta:     16.56243  22.29850  31.37355  2       26
siesta:     14.66550  24.22867  30.00281  2       27
siesta:     13.51546  -4.81312  22.83607  1       28
siesta:     13.72292  -4.16761  24.47997  2       29
siesta:     14.88537  -5.94614  22.39281  2       30
siesta:     22.97697  11.36066  16.08940  1       31
siesta:     22.59462   9.72705  15.49423  2       32
siesta:     21.43081  12.29279  15.52505  2       33
siesta:     16.60854  12.38018   2.37957  1       34
siesta:     17.78917  13.57908   1.48162  2       35
siesta:     15.26242  13.42103   3.04708  2       36
siesta:     24.19806  20.66823  33.97952  1       37
siesta:     24.76854  22.39019  34.19149  2       38
siesta:     25.52470  19.68577  34.69957  2       39
siesta:     38.64815  11.23516  27.00976  1       40
siesta:     37.69066  10.07327  25.87066  2       41
siesta:     37.97967  10.74785  28.54537  2       42
siesta:     29.09794  -2.21707   2.55714  1       43
siesta:     30.07096  -0.66973   2.55023  2       44
siesta:     27.37069  -1.64890   2.19485  2       45
siesta:    -20.53982  31.09160  21.36351  1       46
siesta:    -18.72751  31.55816  20.96405  2       47
siesta:    -20.93628  31.64955  23.06600  2       48
siesta:     28.22390  11.90523  14.10042  1       49
siesta:     26.63990  12.15729  14.99259  2       50
siesta:     28.40573   9.98745  13.96935  2       51
siesta:     14.56873  19.30528  13.66485  1       52
siesta:     15.27536  20.50709  14.85164  2       53
siesta:     15.77169  18.05418  13.71035  2       54
siesta:      2.88628  -6.11073  11.10917  1       55
siesta:      1.30357  -6.87173  10.89560  2       56
siesta:      4.11716  -7.47610  10.73184  2       57
siesta:      1.77696  45.38399   0.70987  1       58
siesta:      0.06802  45.69890   0.46600  2       59
siesta:      2.49390  46.95985   1.43997  2       60
siesta:      8.35311  27.38013  28.55577  1       61
siesta:      8.81293  25.53334  28.77141  2       62
siesta:      8.00209  27.64325  26.74115  2       63
siesta:     -3.95579  24.96297   8.36913  1       64
siesta:     -3.29045  26.64848   8.67348  2       65
siesta:     -5.61332  25.10098   8.98134  2       66
siesta:     14.23524  17.99803 -21.03899  1       67
siesta:     13.65559  16.28399 -21.52064  2       68
siesta:     13.52183  18.10400 -19.36837  2       69
siesta:     13.92796   2.40037  12.02184  1       70
siesta:     13.59915   0.70911  11.64616  2       71
siesta:     12.35754   3.12650  12.35021  2       72
siesta:     13.51872  37.89455  23.65533  1       73
siesta:     12.55954  38.57034  25.04148  2       74
siesta:     14.67758  39.14812  23.03406  2       75
siesta:     21.85623  18.54693  17.83293  1       76
siesta:     22.40281  17.91207  19.44977  2       77
siesta:     21.15217  20.14135  18.11375  2       78
siesta:     39.23670  20.22365  22.43141  1       79
siesta:     38.13543  21.04309  21.24994  2       80
siesta:     40.44880  21.49558  22.89405  2       81
siesta:     20.39306 -15.81984  11.10491  1       82
siesta:     19.71698 -14.50477   9.92684  2       83
siesta:     20.17278 -17.40372  10.24648  2       84
siesta:    -10.15297   3.24890  26.46530  1       85
siesta:    -11.97987   3.67908  26.73192  2       86
siesta:     -9.41265   5.01868  25.98890  2       87
siesta:      3.07280   5.57075  11.31065  1       88
siesta:      4.41101   4.50036  10.85653  2       89
siesta:      3.37563   7.36750  10.81229  2       90
siesta:      8.46820  20.31373   4.34223  1       91
siesta:      9.04532  20.91607   2.70431  2       92
siesta:      8.12208  18.50942   4.24623  2       93
siesta:     -0.07570  11.42011   3.97661  1       94
siesta:     -0.99914  10.92736   2.33565  2       95
siesta:      0.50237  13.17211   3.63464  2       96
siesta:     10.59355  15.61687  24.93203  1       97
siesta:      9.62231  17.19266  24.80737  2       98
siesta:      9.99371  14.69947  26.34477  2       99
siesta:     27.72062   8.46632  -0.00799  1      100
siesta:     26.18021   7.64900   0.44939  2      101
siesta:     27.18062   9.41812  -1.56308  2      102
siesta:     22.68359  23.40436  13.13247  1      103
siesta:     22.97197  21.56235  13.39729  2      104
siesta:     20.95852  23.52502  12.74234  2      105
siesta:      7.05478  27.95561  46.91569  1      106
siesta:      8.26972  28.87195  47.85658  2      107
siesta:      5.55005  28.99413  46.58091  2      108
siesta:     27.92252  21.34244  11.06092  1      109
siesta:     26.81246  20.50381  12.20864  2      110
siesta:     26.66692  22.60520  10.49405  2      111
siesta:     -4.47938  23.96636  -7.74785  1      112
siesta:     -3.35490  24.34354  -9.17006  2      113
siesta:     -4.59580  25.34297  -6.56126  2      114
siesta:      2.01060  26.92304   7.58105  1      115
siesta:      2.39973  25.28264   8.33774  2      116
siesta:      0.94140  26.68411   6.11900  2      117
siesta:     10.32232  26.48153   8.44114  1      118
siesta:      8.59115  26.34205   9.05241  2      119
siesta:     10.98335  24.87311   7.72073  2      120
siesta:     18.04584  24.54539  10.53498  1      121
siesta:     16.63862  25.48078  11.14439  2      122
siesta:     17.79732  24.25258   8.83332  2      123
siesta:      6.77947  31.83203  10.63743  1      124
siesta:      8.39842  32.40675  11.29916  2      125
siesta:      6.22934  30.36550  11.55114  2      126
siesta:     20.16785  20.87103   1.06649  1      127
siesta:     21.56356  20.42262   2.12611  2      128
siesta:     20.82143  21.56984  -0.59009  2      129
siesta:     16.65554   8.48769  -1.30487  1      130
siesta:     17.92722   9.57793  -2.07536  2      131
siesta:     16.16367   9.49378   0.07137  2      132
siesta:     29.56210   5.74809  21.31887  1      133
siesta:     27.80328   5.31645  21.58496  2      134
siesta:     29.83494   5.39899  19.54359  2      135
siesta:     20.64197  23.36946  19.40613  1      136
siesta:     22.28109  23.53731  20.25182  2      137
siesta:     20.03509  24.92159  18.70293  2      138
siesta:      6.23228  22.67800  18.62003  1      139
siesta:      4.50269  22.33713  18.88757  2      140
siesta:      6.13104  24.50243  18.43033  2      141
siesta:     10.54493  11.45797  13.11745  1      142
siesta:      9.19743  11.18499  11.89904  2      143
siesta:     10.54081  13.14852  13.83668  2      144
siesta:     -8.49930   8.40778  25.70505  1      145
siesta:     -8.35730   9.39602  24.18629  2      146
siesta:     -7.48086   9.22847  27.09440  2      147
siesta:     14.11853   3.60257  21.19773  1      148
siesta:     14.01380   5.44878  21.55290  2      149
siesta:     15.55168   3.51023  20.10550  2      150
siesta:     11.10112   1.24010   1.52040  1      151
siesta:     11.42431   0.96417   3.35127  2      152
siesta:     10.14259  -0.18889   1.03471  2      153
siesta:     -0.68120  24.89308  18.28052  1      154
siesta:     -1.93795  25.36411  16.99908  2      155
siesta:     -0.43593  23.08971  18.09232  2      156
siesta:     26.37125  30.07946   7.32156  1      157
siesta:     25.28849  31.41091   8.09970  2      158
siesta:     27.68031  30.99909   6.52622  2      159
siesta:     32.58688 -14.38146   9.29957  1      160
siesta:     31.11707 -13.51303   8.71964  2      161
siesta:     33.66768 -13.33765  10.10042  2      162
siesta:     29.94410  33.19872   5.18383  1      163
siesta:     31.76471  33.10595   5.17058  2      164
siesta:     29.59798  34.85216   5.86640  2      165
siesta:     -4.04375  28.51022  24.25064  1      166
siesta:     -5.46729  29.20612  23.31759  2      167
siesta:     -3.63486  29.50829  25.74540  2      168
siesta:     27.09977   6.38757  11.44894  1      169
siesta:     26.35728   5.34209  12.81711  2      170
siesta:     28.90573   5.90588  11.59338  2      171
siesta:     36.21103  10.29246  31.96987  1      172
siesta:     37.09746   8.68952  32.12048  2      173
siesta:     34.57471   9.74151  31.42578  2      174
siesta:      0.34144  -1.09894  11.87088  1      175
siesta:      0.85414  -1.57322  10.16701  2      176
siesta:      1.72694  -1.75930  12.89838  2      177
siesta:     14.37977  13.34111  18.69480  1      178
siesta:     12.78806  12.66184  18.14833  2      179
siesta:     15.26589  14.20979  17.31501  2      180
siesta:      5.94334 -11.78297  12.86184  1      181
siesta:      7.24897 -12.64196  13.83495  2      182
siesta:      6.93503 -11.01574  11.53287  2      183
siesta:     13.20929  38.57798   6.36970  1      184
siesta:     14.22663  38.66108   4.83465  2      185
siesta:     14.04262  37.31505   7.43811  2      186
siesta:     -0.34133  18.29339  23.95831  1      187
siesta:      0.83236  17.00692  24.62040  2      188
siesta:     -1.76371  18.81377  25.17560  2      189
siesta:     21.02232   6.61985 -14.77316  1      190
siesta:     20.69689   7.27294 -16.39858  2      191
siesta:     22.30332   5.26027 -14.85417  2      192
siesta:     20.34997   1.30137   5.09491  1      193
siesta:     20.31595   1.36867   6.95603  2      194
siesta:     19.12047   2.58041   4.49306  2      195
siesta:     27.62627   1.73224  27.52762  1      196
siesta:     29.43324   1.63070  27.75689  2      197
siesta:     26.96011   2.94056  28.62154  2      198
siesta:     24.56058  16.68165  21.76342  1      199
siesta:     25.05960  15.00356  22.25850  2      200
siesta:     26.13155  17.54974  22.11959  2      201
siesta:     30.06000  23.32289  -0.47030  1      202
siesta:     30.17799  25.00375   0.21974  2      203
siesta:     30.80533  23.48938  -2.05606  2      204
siesta:     25.83485  15.19935  -0.58523  1      205
siesta:     24.47569  14.38524   0.46316  2      206
siesta:     25.34829  16.79213  -1.41362  2      207
siesta:     24.10399 -11.54115  12.90332  1      208
siesta:     24.02339 -11.97517  14.67722  2      209
siesta:     24.43284 -13.05268  11.78448  2      210
siesta:      2.71064   9.90969  38.73338  1      211
siesta:      1.44157   9.61230  37.48644  2      212
siesta:      2.90974  11.73210  38.84776  2      213
siesta:     15.81444   6.63086   9.92351  1      214
siesta:     15.68669   8.18484  10.89163  2      215
siesta:     15.27043   5.09115  10.74517  2      216
siesta:     32.03627  -6.59975  -5.39636  1      217
siesta:     30.66178  -5.66174  -6.20221  2      218
siesta:     31.59006  -8.36339  -5.49312  2      219
siesta:     11.91673  23.42689  17.19957  1      220
siesta:     12.68288  23.75752  18.76006  2      221
siesta:     10.13342  23.06828  17.41666  2      222
siesta:     33.20278   7.08586  29.22154  1      223
siesta:     33.75774   5.82950  27.97520  2      224
siesta:     31.38759   6.78226  29.36066  2      225
siesta:      6.65324  15.33458   5.32643  1      226
siesta:      5.44640  15.13863   6.62400  2      227
siesta:      6.61114  13.70552   4.40017  2      228
siesta:     26.00959  50.00342  26.96784  1      229
siesta:     26.63524  51.02914  28.35454  2      230
siesta:     24.56996  50.92985  26.27837  2      231
siesta:     16.38815  -2.18155  34.47529  1      232
siesta:     17.80515  -1.10712  34.07161  2      233
siesta:     16.52724  -3.49832  33.11080  2      234
siesta:     30.80786  16.74614  15.05190  1      235
siesta:     30.11655  15.99097  13.43236  2      236
siesta:     32.19354  17.69690  14.42593  2      237
siesta:     17.64054  10.79648  -8.35393  1      238
siesta:     18.89083   9.79796  -9.23219  2      239
siesta:     16.63332  11.43277  -9.82892  2      240
siesta:     37.74886  14.45772  20.28943  1      241
siesta:     38.66790  14.73675  21.86745  2      242
siesta:     38.35366  12.82854  19.66335  2      243
siesta:     35.87776  38.31511  -6.54928  1      244
siesta:     35.87966  36.53653  -6.06732  2      245
siesta:     34.01902  38.68730  -6.69045  2      246
siesta:     29.06932  18.43420   6.86503  1      247
siesta:     30.09917  19.01626   5.49340  2      248
siesta:     29.19728  19.69850   8.18779  2      249
siesta:     -4.54140  33.35848  15.11233  1      250
siesta:     -4.48048  33.65239  16.96792  2      251
siesta:     -4.19482  31.49297  15.02554  2      252
siesta:     19.63157  17.08659   7.20335  1      253
siesta:     18.01431  17.97229   7.50471  2      254
siesta:     20.82680  18.22580   7.88225  2      255
siesta:     25.65557  27.81123  15.14410  1      256
siesta:     24.51178  26.82936  14.18353  2      257
siesta:     27.12599  27.76309  13.88753  2      258
siesta:     12.29738   0.78855  35.69753  1      259
siesta:     10.83576   0.17008  36.51603  2      260
siesta:     13.56948  -0.57838  35.47680  2      261
siesta:     30.40454  10.76452  22.38236  1      262
siesta:     30.00840   9.23299  21.66441  2      263
siesta:     31.16908  11.90318  21.09033  2      264
siesta:     17.83317 -14.16594  15.89602  1      265
siesta:     18.64464 -14.59603  14.29916  2      266
siesta:     18.92290 -12.84014  16.60031  2      267
siesta:     23.67572  -1.64976   2.34107  1      268
siesta:     23.11956  -0.84155   3.94202  2      269
siesta:     23.71939  -0.10345   1.34021  2      270
siesta:      9.68514 -23.99587   3.95273  1      271
siesta:     10.11226 -25.33107   2.78531  2      272
siesta:     11.25177 -23.27205   4.49299  2      273
siesta:      3.05034  20.50291   3.19234  1      274
siesta:      2.40430  21.76874   1.97590  2      275
siesta:      4.81248  20.93661   3.59089  2      276
siesta:      2.10183   7.47879  16.71138  1      277
siesta:      2.80157   9.12753  17.13985  2      278
siesta:      2.87748   6.95187  15.06564  2      279
siesta:      3.98661  33.42993  24.49201  1      280
siesta:      2.47324  33.74000  23.55290  2      281
siesta:      3.97779  31.75936  25.17221  2      282
siesta:     25.91030  14.23026   9.29224  1      283
siesta:     24.10551  13.87928   9.64655  2      284
siesta:     26.67504  13.07042  10.56852  2      285
siesta:     17.37524   2.99038  16.05449  1      286
siesta:     18.60441   4.30569  15.68764  2      287
siesta:     16.06207   2.99868  14.84667  2      288
siesta:     18.76871  15.60283  28.57923  1      289
siesta:     17.93454  15.52186  27.01720  2      290
siesta:     19.44962  17.34432  28.44710  2      291
siesta:     -5.74310  39.61739  -8.54252  1      292
siesta:     -5.82305  40.76060  -9.89605  2      293
siesta:     -4.54671  40.25532  -7.30868  2      294
siesta:      9.84030  15.90138  15.71619  1      295
siesta:      9.21453  15.83124  17.54954  2      296
siesta:     10.86186  17.39918  15.84831  2      297
siesta:     20.75752  22.40351  25.80284  1      298
siesta:     20.08536  24.15756  25.73855  2      299
siesta:     19.52350  21.35837  24.87281  2      300
siesta:      2.96058 -16.66838  18.56605  1      301
siesta:      2.12820 -15.76305  17.26678  2      302
siesta:      4.43985 -15.81235  18.91867  2      303
siesta:     -2.84106  11.47276  25.36693  1      304
siesta:     -1.09217  11.46437  24.82351  2      305
siesta:     -3.17903  13.11265  26.06067  2      306
siesta:     16.18342  15.43010  24.15445  1      307
siesta:     16.94068  14.29207  22.87527  2      308
siesta:     14.31484  15.32533  23.87066  2      309
siesta:     14.21848  -2.69005  -1.84146  1      310
siesta:     13.26638  -1.24893  -1.33361  2      311
siesta:     15.95405  -2.31115  -2.06791  2      312
siesta:      7.00971  34.45128  17.88499  1      313
siesta:      5.25063  34.16813  17.80929  2      314
siesta:      7.83444  33.48138  19.18134  2      315
siesta:     21.95188   8.80200  30.46134  1      316
siesta:     22.68063   9.90838  31.83429  2      317
siesta:     20.16971   8.96517  30.82191  2      318
siesta:     35.00575   2.73333  34.87313  1      319
siesta:     36.19393   4.11301  34.99804  2      320
siesta:     34.97805   1.85124  36.42572  2      321
siesta:      6.40068  26.59416  24.14081  1      322
siesta:      7.34104  26.87182  22.57315  2      323
siesta:      6.13536  24.77127  23.85854  2      324
siesta:      2.77246  30.88634  16.63393  1      325
siesta:      1.91849  30.64120  18.21754  2      326
siesta:      1.74604  30.69892  15.08946  2      327
siesta:     12.28100  14.06117   5.79080  1      328
siesta:     10.74496  14.91689   5.44748  2      329
siesta:     11.99084  12.25035   6.01155  2      330
siesta:      2.88490 -14.90986  25.26285  1      331
siesta:      2.66856 -15.02790  27.13099  2      332
siesta:      2.86703 -16.71826  24.44575  2      333
siesta:      8.52857 -20.97757   9.42530  1      334
siesta:      9.82085 -20.81994   8.11400  2      335
siesta:      6.97876 -20.45304   8.69079  2      336
siesta:     29.57930  -0.02371  20.68916  1      337
siesta:     28.39878  -0.12911  22.09666  2      338
siesta:     29.54615  -1.67715  20.07489  2      339
siesta:     -6.08694  13.07895   3.48348  1      340
siesta:     -4.58086  13.23250   4.58485  2      341
siesta:     -7.41413  13.80219   4.48586  2      342
siesta:     25.66724   6.79186   6.83732  1      343
siesta:     26.29835   8.44790   6.36721  2      344
siesta:     26.08266   6.73069   8.73128  2      345
siesta:      5.93796  18.97785  25.86504  1      346
siesta:      5.08077  17.28158  25.98439  2      347
siesta:      6.36726  19.31617  24.10623  2      348
siesta:     14.34026  32.54382  26.70154  1      349
siesta:     12.65205  32.97252  27.27944  2      350
siesta:     14.40884  33.20627  25.03617  2      351
siesta:      0.19803  19.96970  18.95786  1      352
siesta:      0.14411  18.50836  17.86254  2      353
siesta:      0.06443  19.30295  20.68302  2      354
siesta:     17.56654  20.54141  22.47693  1      355
siesta:     17.24057  18.78731  22.56488  2      356
siesta:     18.44793  21.01251  20.90258  2      357
siesta:     37.35275  -8.06721   9.43068  1      358
siesta:     38.12733  -8.21688   7.74398  2      359
siesta:     38.41345  -6.95592  10.38055  2      360
siesta:     10.07277   9.75644  18.50100  1      361
siesta:      9.71436   8.70447  17.03631  2      362
siesta:      9.65018   8.71548  19.95826  2      363
siesta:     36.33340  -2.93150  12.44905  1      364
siesta:     34.73982  -3.88904  12.15198  2      365
siesta:     36.41148  -2.73058  14.27703  2      366
siesta:     21.20363  38.31320  38.67398  1      367
siesta:     19.68547  37.89713  37.70040  2      368
siesta:     22.52868  37.96992  37.46853  2      369
siesta:     20.90719  30.02727  10.02427  1      370
siesta:     21.61330  30.94087  11.47269  2      371
siesta:     19.76974  28.92845  10.81754  2      372
siesta:     15.25432  11.39916  41.54901  1      373
siesta:     15.56164  12.63394  40.21172  2      374
siesta:     13.48462  11.35573  41.92834  2      375
siesta:     19.87924  -2.34870  27.81438  1      376
siesta:     20.60016  -0.74071  27.21112  2      377
siesta:     20.74777  -2.68010  29.35192  2      378
siesta:     13.64364  26.53490 -17.02809  1      379
siesta:     12.18198  26.05992 -18.06713  2      380
siesta:     13.37155  25.93257 -15.38758  2      381
siesta:     12.74330  22.77001   6.77704  1      382
siesta:     13.12450  22.79035   5.04001  2      383
siesta:     13.00525  20.99595   7.33753  2      384

siesta: System type = bulk      

initatomlists: Number of atoms, orbitals, and projectors:    384  2944  4352

siesta: ******************** Simulation parameters ****************************
siesta:
siesta: The following are some of the parameters of the simulation.
siesta: A complete list of the parameters used, including default values,
siesta: can be found in file out.fdf
siesta:
redata: Non-Collinear-spin run           =     F
redata: SpinPolarized (Up/Down) run      =     F
redata: Number of spin components        =     1
redata: Long output                      =     F
redata: Number of Atomic Species         =        2
redata: Charge density info will appear in .RHO file
redata: Write Mulliken Pop.              =     Atomic and Orbital charges
redata: Mesh Cutoff                      =   199.9982  Ry
redata: Net charge of the system         =     0.0000 |e|
redata: Min. number of SCF Iter          =        0
redata: Max. number of SCF Iter          =       50
redata: Mix DM or H after convergence    =     F
redata: Recompute H after scf cycle      =     F
redata: Performing Pulay mixing using    =     3 iterations
redata: Mix DM in first SCF step ?       =     F
redata: Write Pulay info on disk?        =     F
redata: Discard 1st Pulay DM after  kick =     F
redata: New DM Mixing Weight             =     0.3000
redata: New DM Occupancy tolerance       = 0.000000000001
redata: No kicks to SCF
redata: DM Mixing Weight for Kicks       =     0.5000
redata: DM Tolerance for SCF             =     0.000100
redata: Require (free) Energy convergence in SCF =     F
redata: DM (free)Energy tolerance for SCF =     0.000010 eV
redata: Require Harris convergence for SCF =     F
redata: DM Harris energy tolerance for SCF =     0.000010 eV
redata: Using Saved Data (generic)   =     F
redata: Use continuation files for DM    =     T
redata: Neglect nonoverlap interactions  =     F
redata: Method of Calculation            =     Diagonalization
redata: Divide and Conquer               =     T
redata: Electronic Temperature           =     0.0004  Ry
redata: Fix the spin of the system       =     F
redata: Dynamics option                  =     Single-point calculation
redata: ***********************************************************************
Total number of electrons:  1024.000000
Total ionic charge:  1024.000000

* ProcessorY, Blocksize:    8  24


* Orbital distribution balance (max,min):    48    24

 Kpoints in:            1 . Kpoints trimmed:            1

siesta: k-grid: Number of k-points =     1
siesta: k-grid: Cutoff (effective) =     7.823 Ang
siesta: k-grid: Supercell and displacements
siesta: k-grid:    1   0   0      0.000
siesta: k-grid:    0   1   0      0.000
siesta: k-grid:    0   0   1      0.000

                     ====================================
                        Single-point calculation
                     ====================================

outcell: Unit cell vectors (Ang):
       15.646000    0.000000    0.000000
        0.000000   15.646000    0.000000
        0.000000    0.000000   15.646000

outcell: Cell vector modules (Ang)   :   15.646000   15.646000   15.646000
outcell: Cell angles (23,13,12) (deg):     90.0000     90.0000     90.0000
outcell: Cell volume (Ang**3)        :   3830.0988
New_DM. Step:     1
Initializing Density Matrix...
New grid distribution:   1
           1       1:   72    1:    9    1:    9
           2       1:   72    1:    9   10:   18
           3       1:   72    1:    9   19:   27
           4       1:   72    1:    9   28:   36
           5       1:   72    1:    9   37:   45
           6       1:   72    1:    9   46:   54
           7       1:   72    1:    9   55:   63
           8       1:   72    1:    9   64:   72
           9       1:   72   10:   18    1:    9
          10       1:   72   10:   18   10:   18
          11       1:   72   10:   18   19:   27
          12       1:   72   10:   18   28:   36
          13       1:   72   10:   18   37:   45
          14       1:   72   10:   18   46:   54
          15       1:   72   10:   18   55:   63
          16       1:   72   10:   18   64:   72
          17       1:   72   19:   27    1:    9
          18       1:   72   19:   27   10:   18
          19       1:   72   19:   27   19:   27
          20       1:   72   19:   27   28:   36
          21       1:   72   19:   27   37:   45
          22       1:   72   19:   27   46:   54
          23       1:   72   19:   27   55:   63
          24       1:   72   19:   27   64:   72
          25       1:   72   28:   36    1:    9
          26       1:   72   28:   36   10:   18
          27       1:   72   28:   36   19:   27
          28       1:   72   28:   36   28:   36
          29       1:   72   28:   36   37:   45
          30       1:   72   28:   36   46:   54
          31       1:   72   28:   36   55:   63
          32       1:   72   28:   36   64:   72
          33       1:   72   37:   45    1:    9
          34       1:   72   37:   45   10:   18
          35       1:   72   37:   45   19:   27
          36       1:   72   37:   45   28:   36
          37       1:   72   37:   45   37:   45
          38       1:   72   37:   45   46:   54
          39       1:   72   37:   45   55:   63
          40       1:   72   37:   45   64:   72
          41       1:   72   46:   54    1:    9
          42       1:   72   46:   54   10:   18
          43       1:   72   46:   54   19:   27
          44       1:   72   46:   54   28:   36
          45       1:   72   46:   54   37:   45
          46       1:   72   46:   54   46:   54
          47       1:   72   46:   54   55:   63
          48       1:   72   46:   54   64:   72
          49       1:   72   55:   63    1:    9
          50       1:   72   55:   63   10:   18
          51       1:   72   55:   63   19:   27
          52       1:   72   55:   63   28:   36
          53       1:   72   55:   63   37:   45
          54       1:   72   55:   63   46:   54
          55       1:   72   55:   63   55:   63
          56       1:   72   55:   63   64:   72
          57       1:   72   64:   72    1:    9
          58       1:   72   64:   72   10:   18
          59       1:   72   64:   72   19:   27
          60       1:   72   64:   72   28:   36
          61       1:   72   64:   72   37:   45
          62       1:   72   64:   72   46:   54
          63       1:   72   64:   72   55:   63
          64       1:   72   64:   72   64:   72

InitMesh: MESH =   144 x   144 x   144 =     2985984
InitMesh: (bp) =    72 x    72 x    72 =      373248
InitMesh: Mesh cutoff (required, used) =   199.998   234.110 Ry
ExtMesh (bp) on 0 =   136 x    73 x    73 =      724744
New grid distribution:   2
           1      16:   37   36:   53   56:   72
           2       1:   20    1:   15    1:   18
           3      37:   56    1:   18   18:   35
           4      56:   72   19:   35   56:   72
           5      16:   36    1:   18   36:   52
           6       1:   15    1:   18   36:   52
           7      16:   36    1:   19   53:   72
           8       1:   15    1:   19   53:   72
           9      55:   72   36:   54   36:   54
          10      37:   58    1:   17    1:   17
          11      19:   36    1:   17   19:   35
          12      21:   36    1:   15    1:   18
          13      37:   56    1:   17   36:   55
          14      57:   72    1:   17   36:   55
          15      37:   52    1:   18   56:   72
          16      53:   72    1:   18   56:   72
          17      19:   36   16:   35    1:   18
          18       1:   18   16:   35    1:   18
          19      55:   72   19:   35   18:   35
          20      21:   36   18:   35   19:   35
          21      37:   55   18:   35   36:   55
          22      20:   36   19:   35   36:   52
          23      17:   36   20:   35   53:   72
          24      37:   55   19:   35   56:   72
          25      56:   72   36:   56    1:   19
          26      57:   72   18:   35    1:   17
          27       1:   20   18:   35   19:   35
          28      37:   54   19:   35   18:   35
          29      56:   72   18:   35   36:   55
          30       1:   19   19:   35   36:   52
          31      38:   58   36:   53   55:   72
          32       1:   16   20:   35   53:   72
          33      35:   55   36:   56    1:   19
          34       1:   15   36:   53    1:   20
          35      35:   55   36:   54   20:   35
          36       1:   14   36:   56   21:   35
          37       1:   19   36:   54   36:   55
          38      38:   54   36:   54   36:   54
          39       1:   18    1:   17   19:   35
          40       1:   15   36:   53   56:   72
          41      16:   34   36:   53    1:   20
          42      21:   34   54:   72    1:   20
          43      59:   72    1:   17    1:   17
          44      15:   34   36:   56   21:   35
          45      20:   37   36:   54   36:   55
          46      37:   56   18:   35    1:   17
          47      57:   72    1:   18   18:   35
          48      59:   72   36:   53   55:   72
          49       1:   20   54:   72    1:   20
          50      54:   72   57:   72    1:   19
          51      58:   72   55:   72   20:   35
          52       1:   17   55:   72   36:   55
          53      18:   37   55:   72   36:   55
          54      58:   72   55:   72   36:   54
          55      55:   72   54:   72   55:   72
          56      20:   37   54:   72   56:   72
          57      38:   54   54:   72   55:   72
          58      35:   53   57:   72    1:   19
          59      35:   57   55:   72   20:   35
          60      17:   34   57:   72   21:   35
          61      38:   57   55:   72   36:   54
          62      56:   72   36:   54   20:   35
          63       1:   16   57:   72   21:   35
          64       1:   19   54:   72   56:   72
New grid distribution:   3
           1      37:   54   19:   36   55:   72
           2      37:   54   55:   72   55:   72
           3      37:   54   19:   36    1:   18
           4      37:   54   55:   72    1:   18
           5      37:   54    1:   18   37:   54
           6      55:   72   55:   72   55:   72
           7      55:   72   19:   36    1:   18
           8      55:   72   55:   72    1:   18
           9      55:   72   19:   36   55:   72
          10      37:   54   37:   54   55:   72
          11      37:   54    1:   18    1:   18
          12      37:   54   37:   54    1:   18
          13      55:   72    1:   18   37:   54
          14      55:   72   37:   54   55:   72
          15      55:   72    1:   18    1:   18
          16      55:   72   37:   54    1:   18
          17      37:   54    1:   18   55:   72
          18       1:   18   55:   72   37:   54
          19      37:   54   19:   36   19:   36
          20       1:   18   55:   72    1:   18
          21      37:   54   19:   36   37:   54
          22      19:   36   55:   72   37:   54
          23      37:   54    1:   18   19:   36
          24      19:   36   55:   72    1:   18
          25      55:   72    1:   18   55:   72
          26       1:   18   37:   54   37:   54
          27      55:   72   19:   36   19:   36
          28       1:   18   37:   54    1:   18
          29      55:   72   19:   36   37:   54
          30      19:   36   37:   54   37:   54
          31      55:   72    1:   18   19:   36
          32      19:   36   37:   54    1:   18
          33       1:   18   19:   36   37:   54
          34       1:   18   55:   72   55:   72
          35       1:   18   19:   36    1:   18
          36      37:   54   37:   54   19:   36
          37      19:   36   19:   36   37:   54
          38      37:   54   37:   54   37:   54
          39      19:   36   19:   36    1:   18
          40       1:   18   55:   72   19:   36
          41       1:   18    1:   18   37:   54
          42      19:   36   55:   72   55:   72
          43       1:   18    1:   18    1:   18
          44      55:   72   37:   54   19:   36
          45      19:   36    1:   18   37:   54
          46      55:   72   37:   54   37:   54
          47      19:   36    1:   18    1:   18
          48      19:   36   55:   72   19:   36
          49       1:   18   19:   36   55:   72
          50       1:   18   37:   54   55:   72
          51       1:   18   19:   36   19:   36
          52      37:   54   55:   72   19:   36
          53      19:   36   19:   36   55:   72
          54      37:   54   55:   72   37:   54
          55      19:   36   19:   36   19:   36
          56       1:   18   37:   54   19:   36
          57       1:   18    1:   18   55:   72
          58      19:   36   37:   54   55:   72
          59       1:   18    1:   18   19:   36
          60      55:   72   55:   72   19:   36
          61      19:   36    1:   18   55:   72
          62      55:   72   55:   72   37:   54
          63      19:   36    1:   18   19:   36
          64      19:   36   37:   54   19:   36
Setting up quadratic distribution...
ExtMesh (bp) on 0 =    86 x    82 x    81 =      571212
PhiOnMesh: Number of (b)points on node 0 =                 6732
PhiOnMesh: nlist on node 0 =               213366

stepf: Fermi-Dirac step function

siesta: Program's energy decomposition (eV):
siesta: Ebs     =    -19577.532640
siesta: Eions   =    104429.373288
siesta: Ena     =     25182.023610
siesta: Ekin    =     39699.832111
siesta: Enl     =     -5658.920595
siesta: DEna    =         0.000021
siesta: DUscf   =         0.000000
siesta: DUext   =         0.000000
siesta: Exc     =    -14193.541175
siesta: eta*DQ  =         0.000000
siesta: Emadel  =         0.000000
siesta: Emeta   =         0.000000
siesta: Emolmec =         0.000000
siesta: Ekinion =         0.000000
siesta: Eharris =    -60749.431248
siesta: Etot    =    -59399.979316
siesta: FreeEng =    -59399.979316

   scf: iscf   Eharris(eV)      E_KS(eV)   FreeEng(eV)    dDmax  Ef(eV)
   scf:    1   -60749.4312   -59399.9793   -59399.9793  0.98990 -3.4231
timer: Routine,Calls,Time,% =    IterSCF     1       9.564  32.04
   scf:    2   -61454.2912   -59323.4380   -59323.4380  2.37183  2.0800
   scf:    3   -60159.9485   -59686.3553   -59686.3553  0.44160  0.1163
   scf:    4   -60155.0351   -59899.9017   -59899.9017  0.28710  0.5926
   scf:    5   -60154.4617   -60174.4765   -60174.4765  0.04340  0.4210
   scf:    6   -60154.3341   -60158.8878   -60158.8878  0.02053  0.3957
   scf:    7   -60154.3240   -60157.4933   -60157.4933  0.01007  0.4067
   scf:    8   -60154.3232   -60157.0864   -60157.0864  0.00361  0.4251
   scf:    9   -60154.3222   -60156.4202   -60156.4202  0.00173  0.4244
   scf:   10   -60154.3218   -60155.4117   -60155.4117  0.00047  0.4210
   scf:   11   -60154.3218   -60154.9640   -60154.9640  0.00032  0.4204
   scf:   12   -60154.3218   -60154.5634   -60154.5634  0.00024  0.4204
   scf:   13   -60154.3218   -60154.3241   -60154.3241  0.00007  0.4208

SCF Convergence by dMax criterion
max |DM_out - DM_in|:     0.00006954
SCF cycle converged after   13 iterations

Using DM_out to compute the final energy and forces

siesta: E_KS(eV) =           -60154.3218

siesta: E_KS - E_eggbox =    -60154.3218

siesta: Atomic forces (eV/Ang):
----------------------------------------
   Tot    0.083629   -0.055377   -0.001428
----------------------------------------
   Max    4.303965
   Res    0.942947    sqrt( Sum f_i^2 / 3N )
----------------------------------------
   Max    4.303965    constrained

Stress-tensor-Voigt (kbar):      -24.71      -20.67      -24.62       -5.09       -1.68       -1.10
(Free)E + p*V (eV/cell)   -60098.5411
Target enthalpy (eV/cell)   -60154.3218

mulliken: Atomic and Orbital Populations:

Species: O.vdw.1             
Atom  Qatom  Qorb
               2s      2s      2py     2pz     2px     2py     2pz     2px     
               3dxy    3dyz    3dz2    3dxz    3dx2-y2 
   1  6.654   1.571   0.173   1.232   1.476   1.551   0.275   0.189   0.164
              0.007   0.001   0.004   0.007   0.003
   4  6.619   1.523   0.196   0.953   1.731   1.523   0.405   0.098   0.171
              0.011   0.001   0.003   0.002   0.001
   7  6.677   1.598   0.149   1.692   1.238   1.448   0.098   0.260   0.175
              0.004   0.002   0.000   0.010   0.002
  10  6.586   1.510   0.210   1.593   1.594   0.970   0.150   0.157   0.382
              0.007   0.004   0.002   0.005   0.002
  13  6.628   1.547   0.185   1.693   1.503   1.104   0.092   0.170   0.315
              0.004   0.003   0.002   0.009   0.002
  16  6.602   1.527   0.204   1.690   0.972   1.530   0.114   0.378   0.165
              0.004   0.004   0.004   0.007   0.002
  19  6.621   1.567   0.183   1.397   1.520   1.344   0.204   0.171   0.214
              0.002   0.004   0.001   0.005   0.008
  22  6.620   1.542   0.186   1.387   1.242   1.662   0.198   0.264   0.121
              0.002   0.004   0.003   0.006   0.005
  25  6.653   1.549   0.183   1.502   1.486   1.356   0.173   0.163   0.223
              0.003   0.005   0.005   0.001   0.004
  28  6.674   1.562   0.170   1.530   1.304   1.499   0.166   0.252   0.171
              0.006   0.002   0.008   0.002   0.001
  31  6.629   1.569   0.173   1.103   1.735   1.423   0.326   0.092   0.186
              0.005   0.004   0.002   0.003   0.006
  34  6.710   1.613   0.143   1.482   1.666   1.295   0.158   0.107   0.227
              0.010   0.004   0.002   0.002   0.001
  37  6.638   1.573   0.173   1.026   1.754   1.459   0.346   0.091   0.195
              0.008   0.002   0.003   0.004   0.005
  40  6.660   1.602   0.154   1.626   1.039   1.625   0.106   0.350   0.136
              0.005   0.006   0.003   0.006   0.002
  43  6.609   1.546   0.191   1.336   1.821   1.084   0.228   0.057   0.325
              0.008   0.001   0.004   0.001   0.005
  46  6.631   1.571   0.177   1.781   1.270   1.228   0.068   0.240   0.278
              0.002   0.003   0.008   0.001   0.005
  49  6.656   1.603   0.160   1.242   1.705   1.379   0.233   0.096   0.218
              0.001   0.000   0.003   0.005   0.011
  52  6.618   1.556   0.183   1.146   1.579   1.460   0.318   0.152   0.201
              0.010   0.004   0.004   0.004   0.001
  55  6.600   1.550   0.184   1.402   1.802   0.992   0.200   0.067   0.383
              0.011   0.002   0.004   0.001   0.002
  58  6.628   1.553   0.181   1.408   1.732   1.103   0.211   0.086   0.333
              0.004   0.003   0.003   0.001   0.009
  61  6.669   1.589   0.154   1.290   1.287   1.851   0.224   0.237   0.021
              0.002   0.000   0.010   0.001   0.005
  64  6.587   1.513   0.211   1.291   1.756   1.135   0.258   0.089   0.312
              0.003   0.002   0.003   0.004   0.010
  67  6.627   1.597   0.164   1.293   1.219   1.723   0.244   0.278   0.088
              0.004   0.001   0.007   0.005   0.004
  70  6.601   1.526   0.192   1.091   1.770   1.301   0.345   0.090   0.265
              0.005   0.001   0.004   0.002   0.009
  73  6.666   1.548   0.180   1.519   1.393   1.432   0.149   0.222   0.205
              0.007   0.005   0.003   0.004   0.001
  76  6.657   1.555   0.173   1.224   1.384   1.702   0.293   0.212   0.094
              0.003   0.003   0.008   0.002   0.003
  79  6.636   1.578   0.168   1.454   1.513   1.275   0.189   0.177   0.260
              0.009   0.005   0.002   0.003   0.001
  82  6.656   1.577   0.168   1.038   1.529   1.778   0.338   0.149   0.058
              0.002   0.010   0.001   0.003   0.003
  85  6.628   1.572   0.178   1.369   1.783   1.197   0.189   0.059   0.263
              0.004   0.002   0.003   0.001   0.008
  88  6.681   1.585   0.151   1.064   1.802   1.526   0.333   0.048   0.155
              0.006   0.002   0.002   0.002   0.004
  91  6.643   1.566   0.173   1.166   1.378   1.763   0.293   0.209   0.077
              0.001   0.002   0.008   0.003   0.005
  94  6.691   1.623   0.145   1.280   1.447   1.701   0.227   0.169   0.080
              0.002   0.003   0.006   0.004   0.005
  97  6.634   1.564   0.179   1.197   1.436   1.628   0.288   0.196   0.127
              0.007   0.003   0.005   0.004   0.001
 100  6.634   1.583   0.168   1.550   1.366   1.373   0.148   0.213   0.213
              0.005   0.003   0.004   0.004   0.004
 103  6.680   1.595   0.154   1.275   1.839   1.239   0.232   0.055   0.270
              0.001   0.001   0.004   0.002   0.013
 106  6.644   1.565   0.166   1.498   1.647   1.148   0.173   0.119   0.310
              0.009   0.003   0.002   0.003   0.000
 109  6.627   1.580   0.163   1.381   1.515   1.371   0.219   0.164   0.214
              0.008   0.002   0.002   0.006   0.001
 112  6.622   1.528   0.191   1.506   1.217   1.575   0.174   0.272   0.139
              0.002   0.007   0.001   0.005   0.004
 115  6.575   1.497   0.215   1.334   1.269   1.608   0.236   0.258   0.138
              0.002   0.004   0.003   0.005   0.006
 118  6.650   1.568   0.168   1.466   1.708   1.221   0.167   0.079   0.256
              0.002   0.003   0.002   0.002   0.008
 121  6.663   1.541   0.180   1.691   1.157   1.457   0.105   0.306   0.205
              0.005   0.001   0.009   0.003   0.002
 124  6.619   1.549   0.180   1.353   1.641   1.277   0.231   0.120   0.250
              0.002   0.006   0.001   0.004   0.005
 127  6.689   1.589   0.155   1.765   1.184   1.472   0.062   0.277   0.166
              0.003   0.002   0.002   0.009   0.003
 130  6.615   1.570   0.176   1.474   1.289   1.477   0.179   0.252   0.174
              0.007   0.009   0.003   0.002   0.002
 133  6.614   1.531   0.198   1.774   1.227   1.252   0.077   0.271   0.264
              0.002   0.002   0.010   0.000   0.005
 136  6.683   1.576   0.155   1.379   1.662   1.352   0.205   0.114   0.223
              0.002   0.003   0.001   0.003   0.007
 139  6.645   1.586   0.167   1.153   1.837   1.244   0.307   0.063   0.267
              0.002   0.001   0.004   0.002   0.014
 142  6.630   1.553   0.179   1.352   1.493   1.457   0.222   0.178   0.176
              0.001   0.003   0.002   0.006   0.008
 145  6.644   1.573   0.175   1.588   1.068   1.670   0.119   0.321   0.112
              0.003   0.009   0.002   0.003   0.002
 148  6.659   1.590   0.164   1.254   1.596   1.449   0.260   0.142   0.184
              0.001   0.001   0.002   0.006   0.010
 151  6.703   1.600   0.141   1.483   1.288   1.695   0.154   0.234   0.088
              0.006   0.003   0.008   0.001   0.002
 154  6.630   1.553   0.183   1.186   1.547   1.555   0.296   0.145   0.144
              0.001   0.002   0.003   0.006   0.008
 157  6.636   1.586   0.163   1.381   1.620   1.277   0.203   0.129   0.255
              0.010   0.005   0.002   0.003   0.002
 160  6.616   1.502   0.204   1.461   1.612   1.136   0.197   0.154   0.330
              0.010   0.004   0.002   0.002   0.001
 163  6.648   1.599   0.155   1.315   1.763   1.187   0.226   0.087   0.297
              0.001   0.004   0.003   0.001   0.012
 166  6.654   1.555   0.169   1.606   1.298   1.464   0.124   0.241   0.180
              0.004   0.007   0.002   0.003   0.002
 169  6.611   1.570   0.166   1.669   1.471   1.136   0.112   0.174   0.294
              0.004   0.005   0.004   0.002   0.005
 172  6.641   1.535   0.193   1.359   1.808   1.135   0.219   0.062   0.309
              0.007   0.002   0.004   0.002   0.006
 175  6.622   1.574   0.169   1.748   1.095   1.423   0.088   0.319   0.186
              0.004   0.003   0.003   0.007   0.003
 178  6.623   1.549   0.182   1.612   1.489   1.185   0.132   0.172   0.283
              0.003   0.004   0.004   0.006   0.002
 181  6.660   1.594   0.155   1.602   1.308   1.412   0.138   0.236   0.196
              0.006   0.002   0.001   0.009   0.002
 184  6.638   1.566   0.171   1.559   1.178   1.558   0.150   0.288   0.148
              0.004   0.003   0.002   0.008   0.002
 187  6.691   1.614   0.135   1.563   1.562   1.340   0.134   0.123   0.205
              0.004   0.003   0.001   0.006   0.001
 190  6.594   1.496   0.214   1.411   1.324   1.504   0.201   0.245   0.180
              0.005   0.003   0.009   0.001   0.000
 193  6.644   1.579   0.167   1.565   1.164   1.598   0.137   0.290   0.125
              0.006   0.001   0.009   0.001   0.001
 196  6.613   1.540   0.182   1.521   1.591   1.093   0.183   0.157   0.326
              0.001   0.006   0.003   0.002   0.007
 199  6.605   1.561   0.183   1.053   1.772   1.360   0.333   0.090   0.231
              0.007   0.002   0.003   0.003   0.007
 202  6.639   1.565   0.175   1.314   1.183   1.759   0.244   0.303   0.073
              0.002   0.003   0.006   0.005   0.006
 205  6.686   1.601   0.150   1.290   1.568   1.542   0.242   0.138   0.138
              0.004   0.003   0.001   0.005   0.004
 208  6.666   1.587   0.160   1.444   1.046   1.862   0.171   0.335   0.043
              0.001   0.007   0.006   0.000   0.003
 211  6.624   1.565   0.169   1.159   1.533   1.538   0.312   0.172   0.158
              0.000   0.001   0.003   0.007   0.008
 214  6.657   1.555   0.169   0.979   1.545   1.830   0.377   0.142   0.042
              0.002   0.010   0.001   0.002   0.003
 217  6.612   1.537   0.196   1.058   1.708   1.489   0.337   0.100   0.167
              0.006   0.001   0.003   0.004   0.006
 220  6.639   1.546   0.183   1.816   1.323   1.115   0.074   0.249   0.312
[...]
siesta:      8   -0.533025   -0.644768   -0.588668
siesta:      9   -0.265062    0.610947    0.753174
siesta:     10    0.944959    1.490198    1.624457
siesta:     11   -1.340169   -1.384777   -1.335357
siesta:     12    0.636755   -0.356380   -0.416122
siesta:     13   -0.421912   -0.131425   -0.797751
siesta:     14   -0.050718    0.133225    0.434700
siesta:     15    0.358618   -0.306572    0.071812
siesta:     16    0.708857    0.555196    1.885124
siesta:     17   -0.561377   -0.515090   -1.674887
siesta:     18   -0.086141   -0.305945   -0.223408
siesta:     19   -0.855073    0.681626    0.051936
siesta:     20    0.244309   -0.273525   -0.188519
siesta:     21    0.502723   -0.089942   -0.086218
siesta:     22    0.680670    0.308871   -0.058390
siesta:     23    0.003834    0.142695   -0.464649
siesta:     24   -0.487188   -0.475349    0.629613
siesta:     25   -1.760206    1.102946   -0.367757
siesta:     26    1.606027   -0.785025   -0.501052
siesta:     27    0.305441   -0.429850    0.587722
siesta:     28   -1.083950   -0.689505   -2.884303
siesta:     29    0.519964    0.816941    2.264993
siesta:     30    0.610056   -0.408016    0.622927
siesta:     31   -0.496049    2.881895    0.223162
siesta:     32   -0.321268   -2.426986   -0.488384
siesta:     33    0.940455   -0.170251    0.386596
siesta:     34    0.978500   -0.220028   -0.091025
siesta:     35   -0.842098   -0.204561    0.090411
siesta:     36   -0.333867    0.435815    0.189147
siesta:     37   -1.039844    0.240990   -0.526598
siesta:     38    0.106168    0.613780    0.164169
siesta:     39    1.164454   -0.868807    0.620603
siesta:     40    0.881693   -0.224702   -2.918202
siesta:     41    0.168373    0.810225   -0.303280
siesta:     42   -1.173939   -0.531499    3.353553
siesta:     43    0.265375   -0.332069    0.262051
siesta:     44    0.421153    0.474979   -0.260012
siesta:     45   -0.561122   -0.254395    0.234266
siesta:     46    1.061189    0.029473   -0.840390
siesta:     47   -0.650755   -0.030729    0.853374
siesta:     48    0.168565    0.116589    0.107092
siesta:     49    0.590601   -1.473644   -0.610253
siesta:     50   -0.584074   -0.236277    0.258052
siesta:     51   -0.258946    1.729900    0.131351
siesta:     52   -2.268026    2.155303   -0.034501
siesta:     53   -0.362995    0.571463    0.086412
siesta:     54    2.277173   -2.802586    0.172869
siesta:     55    3.158235    0.344216   -0.114974
siesta:     56   -2.838976   -1.175837    0.391701
siesta:     57   -0.033778    0.543567    0.044271
siesta:     58    2.867967   -0.496789    0.449382
siesta:     59   -3.008729    0.487402   -0.405537
siesta:     60   -0.034296   -0.023930    0.005301
siesta:     61    0.291368   -0.574067    0.843592
siesta:     62   -0.485428    0.983894   -0.455376
siesta:     63   -0.003579   -0.697540    0.154677
siesta:     64    1.515225   -0.690904   -0.566881
siesta:     65    0.316025    0.756659   -0.383454
siesta:     66   -2.128905    0.013000    0.703800
siesta:     67    0.069897   -0.656211   -0.349526
siesta:     68   -0.021001    0.047251   -0.863037
siesta:     69    0.067448    0.715454    1.041963
siesta:     70    2.791550    1.326543    0.209932
siesta:     71   -0.183129   -2.736837   -0.521157
siesta:     72   -2.500908    1.350625    0.766828
siesta:     73   -0.732457   -1.486037   -0.862273
siesta:     74   -0.126610    0.559094    0.647914
siesta:     75    0.772505    0.712002   -0.070372
siesta:     76    0.119436   -2.401785   -1.732554
siesta:     77    0.628598   -0.402330    0.929622
siesta:     78   -0.676366    2.768952    0.437195
siesta:     79    0.024786   -0.995741    0.368738
siesta:     80   -0.697596    0.611866   -1.026301
siesta:     81    0.701635    0.792241    0.231098
siesta:     82    0.081415    1.451869    0.574611
siesta:     83    0.314532   -0.322129   -0.148484
siesta:     84   -0.011892   -1.194125   -0.475974
siesta:     85    0.177999    2.091277   -0.534559
siesta:     86    0.672898   -0.303535    0.301929
siesta:     87   -0.557288   -1.497444    0.714239
siesta:     88   -2.747551    2.218732    1.414496
siesta:     89    2.215966   -1.450768   -0.604769
siesta:     90    0.043854   -0.808017   -0.225599
siesta:     91   -0.350308    0.232978    0.831794
siesta:     92   -0.002440    0.048477   -0.553824
siesta:     93   -0.197354   -0.453235   -0.154366
siesta:     94   -0.891463    0.295303   -0.993187
siesta:     95    0.978568   -0.071649    1.157166
siesta:     96   -0.048204   -0.566907    0.001676
siesta:     97    0.885550    1.295508   -1.753714
siesta:     98    0.154778   -0.027644    0.194572
siesta:     99   -0.763985   -1.273502    1.171448
siesta:    100    0.731521    1.180561   -0.948182
siesta:    101   -0.987686   -1.072700    0.520305
siesta:    102    0.395561   -0.061735    0.279522
siesta:    103    2.315916   -0.756290    0.679698
siesta:    104   -0.094258    0.645225   -0.163352
siesta:    105   -2.330263    0.277339   -0.767332
siesta:    106   -0.772612   -1.904432   -0.799891
siesta:    107    0.664603    1.086701    0.833237
siesta:    108   -0.338081    0.815443    0.314927
siesta:    109    0.226249    0.753786   -0.443355
siesta:    110   -0.360064   -1.667798    1.155302
siesta:    111    0.406545    0.774582   -0.948662
siesta:    112   -0.742192   -1.821434   -0.571221
siesta:    113    0.469876    0.546580    0.316463
siesta:    114    0.418178    1.089422    0.383005
siesta:    115    0.561106    0.666418    0.052476
siesta:    116    0.145424   -0.404246   -0.022399
siesta:    117   -0.519689   -0.204808   -0.671605
siesta:    118   -0.263774    0.678359    0.683809
siesta:    119   -0.030021   -0.218939    0.018788
siesta:    120   -0.112847   -0.184693   -0.209513
siesta:    121    2.442035   -0.313229    2.521491
siesta:    122   -1.786863    0.610721    0.446832
siesta:    123   -0.677354   -0.296107   -2.905770
siesta:    124   -0.520586    0.349165   -1.535041
siesta:    125   -0.011414    0.158178    0.578243
siesta:    126    0.218646   -1.074185    0.569216
siesta:    127   -1.231925    0.454743   -1.416860
siesta:    128    1.095318   -0.114013    0.696869
siesta:    129   -0.334414   -0.308115    0.700322
siesta:    130    0.435092   -1.018719   -0.982194
siesta:    131    0.155250   -0.364243   -0.599995
siesta:    132   -0.931961    1.358606    1.808094
siesta:    133    0.574040    0.359376    0.679791
siesta:    134   -0.771254   -0.306336    0.054020
siesta:    135    0.305727    0.082689   -0.631421
siesta:    136   -0.975445   -1.883238   -0.289637
siesta:    137    0.796569    0.632504    0.556006
siesta:    138   -0.038598    1.079937   -0.205095
siesta:    139    1.539502    0.179813    0.021477
siesta:    140   -1.923260   -1.091128    0.271839
siesta:    141    0.512049    0.918459   -0.231766
siesta:    142    0.351735   -0.668008    0.369799
siesta:    143   -0.101456    0.115475   -0.360583
siesta:    144   -0.638468    0.595936    0.300451
siesta:    145    0.370856   -0.095205    0.847559
siesta:    146    0.371691    0.472905   -0.610826
siesta:    147   -0.599037   -0.596594   -0.772383
siesta:    148   -0.866351    0.577608    0.680359
siesta:    149   -0.330645   -0.135500    0.247622
siesta:    150    0.918880   -0.273708   -1.044960
siesta:    151    1.030290    1.773410   -0.361022
siesta:    152    0.448556   -0.032349    0.546443
siesta:    153   -1.443642   -1.376569   -0.950897
siesta:    154   -0.215172    0.951397   -0.077317
siesta:    155   -0.073727    0.345045   -0.147044
siesta:    156    0.295070   -1.256116    0.094868
siesta:    157   -2.406158   -0.430722    1.549375
siesta:    158    0.656843   -0.772236   -0.534144
siesta:    159    1.699050    1.124242   -0.751459
siesta:    160   -1.634134   -4.303965   -1.947539
siesta:    161   -1.264748    1.142294   -0.809455
siesta:    162    2.753205    3.041134    2.736579
siesta:    163   -1.284185   -0.138355   -0.400163
siesta:    164    1.605936   -0.320730   -0.091000
siesta:    165   -0.358985    0.469520    0.322470
siesta:    166    0.576783   -1.395109   -0.928562
siesta:    167   -0.655766    0.496468    0.263779
siesta:    168    0.090185    0.573085    0.330785
siesta:    169    0.714593    0.088247    0.508629
siesta:    170   -0.258827    0.110352    0.096572
siesta:    171    0.152410    0.030644   -0.474763
siesta:    172    1.044764    0.944271    0.476836
siesta:    173    0.422932   -0.511304    0.345276
siesta:    174   -1.149141   -0.353459   -0.528105
siesta:    175   -0.390185    0.534095    2.289699
siesta:    176    0.168966   -0.110509   -1.526412
siesta:    177   -0.109981   -0.230192   -0.077071
siesta:    178    0.441026    0.298740    0.739515
siesta:    179   -0.567281   -0.455485   -0.459598
siesta:    180   -0.128489   -0.029169   -0.285419
siesta:    181   -0.724875   -0.133457   -0.347121
siesta:    182    0.452507   -0.450661    0.791979
siesta:    183    0.362980    0.969526   -0.633716
siesta:    184   -0.898355    0.488935   -0.833490
siesta:    185    0.309678   -0.051636   -0.108270
siesta:    186    0.748446   -0.416209    0.933754
siesta:    187   -0.783260    0.677443   -0.385139
siesta:    188   -0.178454   -0.522698    0.194883
siesta:    189    1.263977    0.090346   -0.229756
siesta:    190   -0.370271   -0.242772    2.100412
siesta:    191   -0.212905    0.294686   -2.111307
siesta:    192    0.349787    0.108401   -0.402999
siesta:    193   -0.401782    0.334080   -0.355228
siesta:    194   -0.036448    0.048671    0.002213
siesta:    195    0.284816    0.045410    0.152565
siesta:    196    0.520213   -1.543689   -1.595330
siesta:    197    0.556225    0.043203    0.366012
siesta:    198   -0.915626    1.927807    1.850477
siesta:    199   -0.451643   -0.081237   -0.009740
siesta:    200   -0.265395   -0.841653    0.101259
siesta:    201    0.601752    0.721161   -0.009371
siesta:    202   -0.929174   -1.011857    2.221408
siesta:    203   -0.516013    1.113751    0.897900
siesta:    204    1.314151   -0.217338   -2.836626
siesta:    205    0.393461   -0.426023   -0.250607
siesta:    206    0.334737    1.019375   -0.456385
siesta:    207   -0.590773   -0.031029    0.587498
siesta:    208    0.174465    0.107146   -1.196169
siesta:    209   -0.203966   -0.510958    0.530398
siesta:    210    0.150251    0.854136    0.976240
siesta:    211    1.001006   -0.208228    0.630171
siesta:    212   -0.677417    0.057478   -0.989063
siesta:    213   -0.149717    0.835484    0.067909
siesta:    214    0.726368    0.178921   -1.884748
siesta:    215   -0.289258    0.490007    0.931126
siesta:    216   -0.323505   -0.554551    0.641473
siesta:    217    0.482798    1.310184    0.035848
siesta:    218   -0.000932   -0.249347   -0.113712
siesta:    219   -0.658805   -0.942612   -0.027081
siesta:    220   -0.049048   -0.212318   -2.498224
siesta:    221    0.298189    0.379106    2.072453
siesta:    222   -0.238317   -0.039921    0.360403
siesta:    223    0.087134   -0.174625   -0.044360
siesta:    224   -0.150035    0.082657   -0.093032
siesta:    225   -0.275978    0.210288    0.029289
siesta:    226    1.861819   -0.323299   -1.874220
siesta:    227   -1.587041   -0.118864    1.497324
siesta:    228   -0.084820    0.196568   -0.019691
siesta:    229   -0.595418   -0.615160    0.080855
siesta:    230    0.591596    0.359818    0.268276
siesta:    231   -0.443492    0.129427   -0.341629
siesta:    232   -0.328548   -1.417505   -0.780563
siesta:    233    0.931275    0.897309    0.235726
siesta:    234   -0.697234    0.415406    0.926326
siesta:    235   -1.939038   -1.498475   -0.933791
siesta:    236    0.368377    0.275020    1.513577
siesta:    237    1.626427    0.946092   -0.436972
siesta:    238   -0.102727    0.020289   -0.404540
siesta:    239    0.663324   -0.346285    0.157248
siesta:    240   -0.504923    0.334402    0.440954
siesta:    241   -0.653348    0.424952   -0.815044
siesta:    242    0.352888    0.095707    0.714065
siesta:    243    0.075042   -0.700930   -0.037023
siesta:    244   -0.657785    0.260203    0.072017
siesta:    245   -0.291072   -0.323142   -0.019651
siesta:    246    0.974710   -0.125250    0.069583
siesta:    247   -0.644032   -1.078773    0.244018
siesta:    248    0.992271    0.612163   -0.853970
siesta:    249   -0.434878    0.491063    0.469181
siesta:    250    0.201519   -1.409010    0.141974
siesta:    251   -0.027787    0.320392    0.442803
siesta:    252   -0.226217    0.265875   -0.101921
siesta:    253   -1.412320   -0.817398   -0.113094
siesta:    254   -0.099302   -0.264616   -0.192015
siesta:    255    1.396675    1.227906    0.355185
siesta:    256    2.261307    0.993153   -0.395891
siesta:    257   -1.758295   -1.348630   -0.616520
siesta:    258   -0.373787    0.442769    0.627590
siesta:    259    1.927015    1.585582   -0.965213
siesta:    260   -1.007013   -1.228037    1.003718
siesta:    261   -0.253784   -0.121069    0.212324
siesta:    262    1.601800    3.455659    2.067015
siesta:    263   -0.828312   -3.592053   -1.636171
siesta:    264   -0.297323   -0.262835   -0.626993
siesta:    265    0.062666    0.358937   -0.286845
siesta:    266    0.120224   -0.428280   -0.529360
siesta:    267    0.553077    0.115304    0.382197
siesta:    268    0.001884    0.217824    0.088292
siesta:    269    0.050822   -0.379478   -0.110185
siesta:    270    0.131449    0.249747   -0.325162
siesta:    271   -1.471210    0.892418    0.121895
siesta:    272    0.158247   -1.072162   -0.775826
siesta:    273    0.807864    0.539735    0.457833
siesta:    274   -0.236771   -0.231313    0.058163
siesta:    275   -0.065865    0.016521   -0.211430
siesta:    276    0.135223   -0.059945    0.036189
siesta:    277    0.100251   -0.639989   -0.813518
siesta:    278    0.173790    0.271058   -0.045458
siesta:    279   -0.376567    0.199902    0.560853
siesta:    280    1.861363    1.023934    0.531937
siesta:    281   -1.343625    0.004906   -0.867322
siesta:    282   -0.366425   -0.988603    0.307102
siesta:    283   -0.561088   -0.650052    0.766821
siesta:    284   -0.031078   -0.066560   -0.256473
siesta:    285    0.233234    0.301366   -0.226644
siesta:    286    1.059513   -0.995967    2.375190
siesta:    287    0.215494    0.671452   -0.381700
siesta:    288   -1.403940    0.078613   -1.686277
siesta:    289    1.838467    1.069261    1.645245
siesta:    290   -1.662092   -0.757616   -2.183833
siesta:    291   -0.021307   -0.347091    0.978154
siesta:    292   -0.479172   -1.773104    1.383426
siesta:    293   -0.140539    1.272023   -1.910815
siesta:    294    0.491528    0.111089    0.648735
siesta:    295   -0.702353    0.031653    0.974476
siesta:    296   -0.005959   -0.637908   -0.489020
siesta:    297    0.912305    0.763102   -0.486931
siesta:    298    0.358350    0.534736    0.437566
siesta:    299    0.422465   -0.403109    0.220458
siesta:    300   -0.065652    0.105452   -0.427320
siesta:    301   -1.561890   -2.466117    0.507219
siesta:    302   -0.982688    1.161393   -1.536836
siesta:    303    2.899741    1.568353    0.752389
siesta:    304   -1.097262   -1.129738   -0.147282
siesta:    305    0.704421    0.047924   -0.699613
siesta:    306   -0.216370    1.099454    1.095989
siesta:    307   -0.372774    0.024682   -0.882465
siesta:    308   -0.289438   -0.030879    0.329609
siesta:    309    0.638887    0.040028    0.318335
siesta:    310   -1.057845   -2.587623   -0.458298
siesta:    311   -0.264291    1.384980    0.453384
siesta:    312    1.736637    1.030701    0.108418
siesta:    313    1.986514    1.521854   -1.244391
siesta:    314   -1.715734   -0.544951    0.159774
siesta:    315   -0.227446   -0.861709    0.844870
siesta:    316    1.226619    0.515135    1.494046
siesta:    317   -0.224358   -0.223234   -0.940115
siesta:    318   -0.933546   -0.320046   -0.205481
siesta:    319   -1.094595    0.164417   -2.052226
siesta:    320    0.771888    0.370788    0.186285
siesta:    321    0.391070   -0.648891    1.694700
siesta:    322    0.370829   -0.617571   -1.358782
siesta:    323    0.100903    0.873069   -0.030567
siesta:    324   -0.736367    0.081482    0.804637
siesta:    325    1.697187    0.242326   -1.627998
siesta:    326   -1.484230   -0.289907    0.756827
siesta:    327   -0.258158    0.181953    0.838534
siesta:    328    1.818253   -0.103282    0.262355
siesta:    329   -1.641557    0.331490   -0.230064
siesta:    330   -0.171507   -0.153287    0.180180
siesta:    331    0.215997   -1.838324   -0.606206
siesta:    332   -0.043090   -0.326041   -0.081929
siesta:    333   -0.036588    2.163960    1.403916
siesta:    334    1.047157   -0.179160    0.778984
siesta:    335    0.079417   -0.027000   -0.178228
siesta:    336   -1.443001    0.253360   -0.799417
siesta:    337    0.522391    2.130412    0.594559
siesta:    338   -0.631487    0.238293    0.603342
siesta:    339   -0.003209   -2.563378   -1.100067
siesta:    340    1.059863   -0.493344    0.239616
siesta:    341   -0.098451   -0.017744   -0.221828
siesta:    342   -0.886979    0.551002    0.359736
siesta:    343   -0.161089    0.333246    0.459605
siesta:    344    0.264128    0.402636   -0.320950
siesta:    345    0.042705   -0.325115   -0.464537
siesta:    346   -0.415027   -0.557416    0.780237
siesta:    347    0.503923    0.847657   -0.595442
siesta:    348    0.015819   -0.286474    0.008837
siesta:    349   -0.285187   -0.729130    1.265722
siesta:    350   -0.000963    0.052309    0.469593
siesta:    351    0.004205    0.506181   -1.691293
siesta:    352    0.236707    0.545091    0.325537
siesta:    353    0.024312   -0.468482   -0.744383
siesta:    354   -0.130652    0.019754    0.361679
siesta:    355   -0.222806    1.971574   -0.166393
siesta:    356   -0.517558   -2.097070   -0.010248
siesta:    357    0.249773    0.064396    0.259575
siesta:    358   -0.765814   -1.040313   -0.140593
siesta:    359   -0.055402   -0.007280   -0.312385
siesta:    360    0.570937    0.650883    0.552768
siesta:    361    0.261853    0.357288    0.051875
siesta:    362   -0.092405    0.104601   -0.064998
siesta:    363   -0.184428   -0.072260    0.155639
siesta:    364   -0.897993   -0.279967   -0.799988
siesta:    365    0.480725    0.107729    0.049844
siesta:    366    0.484902    0.103285    0.630674
siesta:    367   -1.174510    0.437428    0.326208
siesta:    368   -0.200246   -0.258286    0.323648
siesta:    369    1.069815   -0.417734   -0.442186
siesta:    370    1.654096    1.499420    0.035309
siesta:    371   -0.026541    0.127656   -0.331066
siesta:    372   -1.658023   -1.740355    0.657518
siesta:    373    2.650977   -0.092639   -0.390715
siesta:    374   -0.318732   -0.224001    0.189237
siesta:    375   -1.908793    0.113036    0.048477
siesta:    376   -0.947893    0.531112   -1.616279
siesta:    377   -0.298431   -0.197342    0.108872
siesta:    378    0.911974   -0.276173    1.484712
siesta:    379    0.808836    1.119062   -1.794543
siesta:    380   -0.282368    0.094453   -0.378465
siesta:    381   -0.620715   -0.951912    2.104447
siesta:    382   -0.030446   -0.700063    2.194779
siesta:    383    0.633332    0.070844   -2.229766
siesta:    384    0.044801    0.266686   -0.195249
siesta: ----------------------------------------
siesta:    Tot    0.083629   -0.055377   -0.001428

siesta: Stress tensor (static) (eV/Ang**3):
siesta:    -0.015424   -0.003177   -0.000688
siesta:    -0.003177   -0.012902   -0.001050
siesta:    -0.000688   -0.001050   -0.015365

siesta: Cell volume =       3830.098806 Ang**3

siesta: Pressure (static):
siesta:                Solid            Molecule  Units
siesta:           0.00015862          0.00001870  Ry/Bohr**3
siesta:           0.01456379          0.00171709  eV/Ang**3
siesta:          23.33401269          2.75111676  kBar
(Free)E+ p_basis*V_orbitals  =      -60087.643428
(Free)Eharris+ p_basis*V_orbitals  =      -60087.643429
>> End of run:  12-MAR-2018  16:13:04
Job completed
